{"_id": "614115cea640260874880026", "molecule": {"@module": "pymatgen.core.structure", "@class": "Molecule", "charge": 0, "spin_multiplicity": 1, "sites": [{"name": "F", "species": [{"element": "F", "occu": 1}], "xyz": [2.531059, 2.224599, 2.515115], "properties": {}}, {"name": "F", "species": [{"element": "F", "occu": 1}], "xyz": [1.031678, 0.774664, 1.85266], "properties": {}}, {"name": "F", "species": [{"element": "F", "occu": 1}], "xyz": [0.951724, 3.084119, -2.764711], "properties": {}}, {"name": "F", "species": [{"element": "F", "occu": 1}], "xyz": [2.476427, 4.526974, -2.053355], "properties": {}}, {"name": "F", "species": [{"element": "F", "occu": 1}], "xyz": [4.479594, 0.219899, 2.47061], "properties": {}}, {"name": "F", "species": [{"element": "F", "occu": 1}], "xyz": [2.721628, -0.237546, 3.729043], "properties": {}}, {"name": "O", "species": [{"element": "O", "occu": 1}], "xyz": [2.796503, 1.210946, 0.515241], "properties": {}}, {"name": "C", "species": [{"element": "C", "occu": 1}], "xyz": [2.179073, 2.268607, -0.265375], "properties": {}}, {"name": "C", "species": [{"element": "C", "occu": 1}], "xyz": [2.852471, 2.218335, -1.630443], "properties": {}}, {"name": "C", "species": [{"element": "C", "occu": 1}], "xyz": [2.375181, 1.075606, 1.789067], "properties": {}}, {"name": "C", "species": [{"element": "C", "occu": 1}], "xyz": [2.308094, 3.263211, -2.581049], "properties": {}}, {"name": "C", "species": [{"element": "C", "occu": 1}], "xyz": [3.15132, -0.082651, 2.447168], "properties": {}}, {"name": "H", "species": [{"element": "H", "occu": 1}], "xyz": [1.104727, 2.080515, -0.339507], "properties": {}}, {"name": "H", "species": [{"element": "H", "occu": 1}], "xyz": [2.349559, 3.227611, 0.229908], "properties": {}}, {"name": "H", "species": [{"element": "H", "occu": 1}], "xyz": [3.930542, 2.379666, -1.520071], "properties": {}}, {"name": "H", "species": [{"element": "H", "occu": 1}], "xyz": [2.705249, 1.231755, -2.083978], "properties": {}}, {"name": "H", "species": [{"element": "H", "occu": 1}], "xyz": [2.778133, 3.253168, -3.568814], "properties": {}}, {"name": "H", "species": [{"element": "H", "occu": 1}], "xyz": [3.002438, -1.016959, 1.898986], "properties": {}}]}, "smiles": "FC(F)(OCCC(F)F)C(F)F", "inchi": "InChI=1S/C5H6F6O/c6-3(7)1-2-12-5(10,11)4(8)9/h3-4H,1-2H2", "formula_alphabetical": "C5 F6 H6 O1", "chemsys": "C-F-H-O", "energy": -868.463752029, "esp": {"1": ["F", -0.170074], "2": ["F", -0.215634], "3": ["F", -0.243792], "4": ["F", -0.243392], "5": ["F", -0.2029], "6": ["F", -0.205598], "7": ["O", -0.462426], "8": ["C", 0.482324], "9": ["C", -0.338491], "10": ["C", 0.403851], "11": ["C", 0.361178], "12": ["C", 0.357505], "13": ["H", 0.013409], "14": ["H", 0.012335], "15": ["H", 0.127877], "16": ["H", 0.122299], "17": ["H", 0.097548], "18": ["H", 0.103983]}, "dipole_moment": {"X": 1.0167, "Y": -1.3992, "Z": -3.2215, "Tot": 3.6564}, "functional": "B3LYP", "basis": "6-31+G*", "phase": "gas", "tag": "lis", "state": "successful", "wall_time (s)": 9.228796904091723, "version": "0.0.1", "gauss_version": "ES64L-G16RevC.01", "last_updated": "2021-09-14 21:36:14.352000", "polarizability": 68.58, "fluorinated-solvent": "89402554", "run_ids": ["614115ae7c8c893f60c5aa79", "614115c4158b8fab5ad744cb"]}