{"_id": "61412ebbe4ddf245f91d1f4b", "molecule": {"@module": "pymatgen.core.structure", "@class": "Molecule", "charge": 0, "spin_multiplicity": 1, "sites": [{"name": "F", "species": [{"element": "F", "occu": 1}], "xyz": [4.898575, 0.684459, 1.411536], "properties": {}}, {"name": "F", "species": [{"element": "F", "occu": 1}], "xyz": [5.043226, 0.606804, -0.792882], "properties": {}}, {"name": "F", "species": [{"element": "F", "occu": 1}], "xyz": [6.415002, 2.688829, 0.275268], "properties": {}}, {"name": "F", "species": [{"element": "F", "occu": 1}], "xyz": [4.638856, 3.38684, -0.847169], "properties": {}}, {"name": "O", "species": [{"element": "O", "occu": 1}], "xyz": [2.424305, 2.050128, 1.127681], "properties": {}}, {"name": "C", "species": [{"element": "C", "occu": 1}], "xyz": [4.49056, 1.296622, 0.253049], "properties": {}}, {"name": "C", "species": [{"element": "C", "occu": 1}], "xyz": [2.976786, 1.230618, 0.124488], "properties": {}}, {"name": "C", "species": [{"element": "C", "occu": 1}], "xyz": [0.995782, 2.090195, 1.110281], "properties": {}}, {"name": "C", "species": [{"element": "C", "occu": 1}], "xyz": [0.522625, 3.03367, 2.20757], "properties": {}}, {"name": "C", "species": [{"element": "C", "occu": 1}], "xyz": [5.053239, 2.72809, 0.281601], "properties": {}}, {"name": "C", "species": [{"element": "C", "occu": 1}], "xyz": [0.977613, 4.481915, 1.995401], "properties": {}}, {"name": "H", "species": [{"element": "H", "occu": 1}], "xyz": [2.70085, 1.576425, -0.882401], "properties": {}}, {"name": "H", "species": [{"element": "H", "occu": 1}], "xyz": [2.677083, 0.177227, 0.236387], "properties": {}}, {"name": "H", "species": [{"element": "H", "occu": 1}], "xyz": [0.652005, 2.440079, 0.121992], "properties": {}}, {"name": "H", "species": [{"element": "H", "occu": 1}], "xyz": [0.600668, 1.073803, 1.268982], "properties": {}}, {"name": "H", "species": [{"element": "H", "occu": 1}], "xyz": [-0.574231, 2.982428, 2.241309], "properties": {}}, {"name": "H", "species": [{"element": "H", "occu": 1}], "xyz": [0.888907, 2.657718, 3.171644], "properties": {}}, {"name": "H", "species": [{"element": "H", "occu": 1}], "xyz": [4.708716, 3.275593, 1.16087], "properties": {}}, {"name": "H", "species": [{"element": "H", "occu": 1}], "xyz": [0.604555, 4.876478, 1.04139], "properties": {}}, {"name": "H", "species": [{"element": "H", "occu": 1}], "xyz": [0.606414, 5.131486, 2.796256], "properties": {}}, {"name": "H", "species": [{"element": "H", "occu": 1}], "xyz": [2.070322, 4.549991, 1.981717], "properties": {}}]}, "smiles": "FC(F)(COCCC)C(F)F", "inchi": "InChI=1S/C6H10F4O/c1-2-3-11-4-6(9,10)5(7)8/h5H,2-4H2,1H3", "formula_alphabetical": "C6 F4 H10 O1", "chemsys": "C-F-H-O", "energy": -709.275424693, "esp": {"1": ["F", -0.216646], "2": ["F", -0.203063], "3": ["F", -0.201975], "4": ["F", -0.204381], "5": ["O", -0.317468], "6": ["C", 0.380528], "7": ["C", -0.113322], "8": ["C", 0.073021], "9": ["C", 0.111058], "10": ["C", 0.311275], "11": ["C", -0.19793], "12": ["H", 0.098062], "13": ["H", 0.14203], "14": ["H", 0.049953], "15": ["H", 0.028301], "16": ["H", -0.009567], "17": ["H", 0.010181], "18": ["H", 0.106305], "19": ["H", 0.051769], "20": ["H", 0.053693], "21": ["H", 0.048175]}, "dipole_moment": {"X": -4.0003, "Y": 0.3567, "Z": 0.6992, "Tot": 4.0766}, "functional": "B3LYP", "basis": "6-31+G*", "phase": "gas", "tag": "lis", "state": "successful", "wall_time (s)": 9.703499866067432, "version": "0.0.1", "gauss_version": "ES64L-G16RevC.01", "last_updated": "2021-09-14 23:22:34.882000", "polarizability": 79.04, "fluorinated-solvent": "88850838", "run_ids": ["61412e9966b5cb143a90b2a0", "61412eb5e73ab67171524371"]}