{"_id": "61410c612165f51aceabb110", "molecule": {"@module": "pymatgen.core.structure", "@class": "Molecule", "charge": 0, "spin_multiplicity": 1, "sites": [{"name": "F", "species": [{"element": "F", "occu": 1}], "xyz": [4.961809, 1.008099, 1.20157], "properties": {}}, {"name": "F", "species": [{"element": "F", "occu": 1}], "xyz": [4.331291, 0.93727, -0.887082], "properties": {}}, {"name": "F", "species": [{"element": "F", "occu": 1}], "xyz": [4.416739, -0.900094, 0.289382], "properties": {}}, {"name": "F", "species": [{"element": "F", "occu": 1}], "xyz": [1.272337, 0.298375, 4.657432], "properties": {}}, {"name": "F", "species": [{"element": "F", "occu": 1}], "xyz": [1.572744, 2.247228, 5.600788], "properties": {}}, {"name": "F", "species": [{"element": "F", "occu": 1}], "xyz": [-0.443957, 1.558209, 5.108014], "properties": {}}, {"name": "O", "species": [{"element": "O", "occu": 1}], "xyz": [0.992588, 2.206765, 3.501401], "properties": {}}, {"name": "C", "species": [{"element": "C", "occu": 1}], "xyz": [2.254619, 2.090764, 0.86457], "properties": {}}, {"name": "C", "species": [{"element": "C", "occu": 1}], "xyz": [0.753358, 2.301287, 1.116957], "properties": {}}, {"name": "C", "species": [{"element": "C", "occu": 1}], "xyz": [2.651601, 0.610572, 0.7726], "properties": {}}, {"name": "C", "species": [{"element": "C", "occu": 1}], "xyz": [0.225832, 1.659716, 2.391561], "properties": {}}, {"name": "C", "species": [{"element": "C", "occu": 1}], "xyz": [4.089205, 0.416828, 0.346006], "properties": {}}, {"name": "C", "species": [{"element": "C", "occu": 1}], "xyz": [0.8486, 1.594569, 4.683897], "properties": {}}, {"name": "H", "species": [{"element": "H", "occu": 1}], "xyz": [2.829446, 2.57056, 1.663202], "properties": {}}, {"name": "H", "species": [{"element": "H", "occu": 1}], "xyz": [2.521525, 2.595043, -0.071156], "properties": {}}, {"name": "H", "species": [{"element": "H", "occu": 1}], "xyz": [0.545174, 3.377421, 1.15256], "properties": {}}, {"name": "H", "species": [{"element": "H", "occu": 1}], "xyz": [0.167234, 1.891434, 0.282413], "properties": {}}, {"name": "H", "species": [{"element": "H", "occu": 1}], "xyz": [2.031686, 0.077454, 0.042022], "properties": {}}, {"name": "H", "species": [{"element": "H", "occu": 1}], "xyz": [2.54357, 0.104407, 1.737458], "properties": {}}, {"name": "H", "species": [{"element": "H", "occu": 1}], "xyz": [-0.830772, 1.897563, 2.550041], "properties": {}}, {"name": "H", "species": [{"element": "H", "occu": 1}], "xyz": [0.34586, 0.571391, 2.383565], "properties": {}}]}, "smiles": "FC(F)(F)CCCCOC(F)(F)F", "inchi": "InChI=1S/C6H8F6O/c7-5(8,9)3-1-2-4-13-6(10,11)12/h1-4H2", "formula_alphabetical": "C6 F6 H8 O1", "chemsys": "C-F-H-O", "energy": -907.805141434, "esp": {"1": ["F", -0.205019], "2": ["F", -0.20972], "3": ["F", -0.220891], "4": ["F", -0.207013], "5": ["F", -0.180681], "6": ["F", -0.211349], "7": ["O", -0.343924], "8": ["C", 0.155179], "9": ["C", -0.154212], "10": ["C", -0.303872], "11": ["C", 0.147321], "12": ["C", 0.583168], "13": ["C", 0.665616], "14": ["H", 0.00777], "15": ["H", 0.007679], "16": ["H", 0.069448], "17": ["H", 0.056794], "18": ["H", 0.11608], "19": ["H", 0.133259], "20": ["H", 0.063855], "21": ["H", 0.030512]}, "dipole_moment": {"X": -3.1776, "Y": 0.5626, "Z": -1.9253, "Tot": 3.7578}, "functional": "B3LYP", "basis": "6-31+G*", "phase": "gas", "tag": "lis", "state": "successful", "wall_time (s)": 11.296124624903314, "version": "0.0.1", "gauss_version": "ES64L-G16RevC.01", "last_updated": "2021-09-14 20:56:01.615000", "polarizability": 79.2, "fluorinated-solvent": "87711388", "run_ids": ["61410bf84902c0a20ed96fcd", "61410c5809f411dbf8570349"]}