{"_id": "61412485b81b9b6b7c186aa0", "molecule": {"@module": "pymatgen.core.structure", "@class": "Molecule", "charge": 0, "spin_multiplicity": 1, "sites": [{"name": "F", "species": [{"element": "F", "occu": 1}], "xyz": [2.458802, 4.032424, -0.033482], "properties": {}}, {"name": "F", "species": [{"element": "F", "occu": 1}], "xyz": [0.763583, 2.710665, 0.359383], "properties": {}}, {"name": "F", "species": [{"element": "F", "occu": 1}], "xyz": [2.081279, 3.500631, 2.622554], "properties": {}}, {"name": "F", "species": [{"element": "F", "occu": 1}], "xyz": [2.269302, 1.353487, 2.281333], "properties": {}}, {"name": "F", "species": [{"element": "F", "occu": 1}], "xyz": [3.962246, 2.675213, 1.885022], "properties": {}}, {"name": "F", "species": [{"element": "F", "occu": 1}], "xyz": [2.718354, -1.790831, -3.810618], "properties": {}}, {"name": "F", "species": [{"element": "F", "occu": 1}], "xyz": [3.877818, -1.96204, -1.978713], "properties": {}}, {"name": "F", "species": [{"element": "F", "occu": 1}], "xyz": [1.796391, -2.62792, -2.012612], "properties": {}}, {"name": "O", "species": [{"element": "O", "occu": 1}], "xyz": [2.686103, 1.821857, -0.417071], "properties": {}}, {"name": "O", "species": [{"element": "O", "occu": 1}], "xyz": [2.181701, -0.485863, -2.058924], "properties": {}}, {"name": "C", "species": [{"element": "C", "occu": 1}], "xyz": [2.356804, 1.877399, -1.825493], "properties": {}}, {"name": "C", "species": [{"element": "C", "occu": 1}], "xyz": [2.131427, 2.761374, 0.366091], "properties": {}}, {"name": "C", "species": [{"element": "C", "occu": 1}], "xyz": [2.958523, 0.657818, -2.478035], "properties": {}}, {"name": "C", "species": [{"element": "C", "occu": 1}], "xyz": [2.624584, 2.564799, 1.827691], "properties": {}}, {"name": "C", "species": [{"element": "C", "occu": 1}], "xyz": [2.635468, -1.687312, -2.45503], "properties": {}}, {"name": "H", "species": [{"element": "H", "occu": 1}], "xyz": [1.270082, 1.888638, -1.950208], "properties": {}}, {"name": "H", "species": [{"element": "H", "occu": 1}], "xyz": [2.792318, 2.782679, -2.261096], "properties": {}}, {"name": "H", "species": [{"element": "H", "occu": 1}], "xyz": [2.899471, 0.756907, -3.567479], "properties": {}}, {"name": "H", "species": [{"element": "H", "occu": 1}], "xyz": [4.001594, 0.529903, -2.172186], "properties": {}}]}, "smiles": "FC(F)(OCCOC(F)(F)F)C(F)(F)F", "inchi": "InChI=1S/C5H4F8O2/c6-3(7,8)4(9,10)14-1-2-15-5(11,12)13/h1-2H2", "formula_alphabetical": "C5 F8 H4 O2", "chemsys": "C-F-H-O", "energy": -1142.18495662, "esp": {"1": ["F", -0.152319], "2": ["F", -0.144084], "3": ["F", -0.144517], "4": ["F", -0.144924], "5": ["F", -0.150194], "6": ["F", -0.214491], "7": ["F", -0.203515], "8": ["F", -0.18261], "9": ["O", -0.263118], "10": ["O", -0.329517], "11": ["C", 0.137339], "12": ["C", 0.252167], "13": ["C", -0.003942], "14": ["C", 0.471805], "15": ["C", 0.694537], "16": ["H", 0.101405], "17": ["H", 0.072368], "18": ["H", 0.093254], "19": ["H", 0.110354]}, "dipole_moment": {"X": 0.6223, "Y": 1.6522, "Z": -2.8012, "Tot": 3.3111}, "functional": "B3LYP", "basis": "6-31+G*", "phase": "gas", "tag": "lis", "state": "successful", "wall_time (s)": 12.833750078920275, "version": "0.0.1", "gauss_version": "ES64L-G16RevC.01", "last_updated": "2021-09-14 22:39:01.684000", "polarizability": 75.15, "fluorinated-solvent": "140019049", "run_ids": ["614124657ff3596e62f30e2f", "6141247ed3a468b7b7489000"]}