{"_id": "61410cb0c4a915a172b2f8e1", "molecule": {"@module": "pymatgen.core.structure", "@class": "Molecule", "charge": 0, "spin_multiplicity": 1, "sites": [{"name": "F", "species": [{"element": "F", "occu": 1}], "xyz": [1.212216, 0.347032, 0.38662], "properties": {}}, {"name": "F", "species": [{"element": "F", "occu": 1}], "xyz": [2.962313, -0.682578, 1.197568], "properties": {}}, {"name": "F", "species": [{"element": "F", "occu": 1}], "xyz": [3.557721, 2.274838, -1.847943], "properties": {}}, {"name": "F", "species": [{"element": "F", "occu": 1}], "xyz": [1.729379, 2.843593, -0.806227], "properties": {}}, {"name": "F", "species": [{"element": "F", "occu": 1}], "xyz": [3.637199, 3.736134, -0.232841], "properties": {}}, {"name": "O", "species": [{"element": "O", "occu": 1}], "xyz": [2.831128, -0.333682, -1.030492], "properties": {}}, {"name": "C", "species": [{"element": "C", "occu": 1}], "xyz": [3.300454, 1.501967, 0.403334], "properties": {}}, {"name": "C", "species": [{"element": "C", "occu": 1}], "xyz": [2.569843, 0.18416, 0.182127], "properties": {}}, {"name": "C", "species": [{"element": "C", "occu": 1}], "xyz": [2.183068, -1.59028, -1.378875], "properties": {}}, {"name": "C", "species": [{"element": "C", "occu": 1}], "xyz": [2.543491, -1.892291, -2.824828], "properties": {}}, {"name": "C", "species": [{"element": "C", "occu": 1}], "xyz": [3.04342, 2.580289, -0.635971], "properties": {}}, {"name": "C", "species": [{"element": "C", "occu": 1}], "xyz": [2.018426, -0.841601, -3.809936], "properties": {}}, {"name": "H", "species": [{"element": "H", "occu": 1}], "xyz": [3.00046, 1.893696, 1.377472], "properties": {}}, {"name": "H", "species": [{"element": "H", "occu": 1}], "xyz": [4.374152, 1.303022, 0.418335], "properties": {}}, {"name": "H", "species": [{"element": "H", "occu": 1}], "xyz": [2.544455, -2.366853, -0.696709], "properties": {}}, {"name": "H", "species": [{"element": "H", "occu": 1}], "xyz": [1.101547, -1.471858, -1.2525], "properties": {}}, {"name": "H", "species": [{"element": "H", "occu": 1}], "xyz": [3.634827, -1.97822, -2.905576], "properties": {}}, {"name": "H", "species": [{"element": "H", "occu": 1}], "xyz": [2.128297, -2.880972, -3.06381], "properties": {}}, {"name": "H", "species": [{"element": "H", "occu": 1}], "xyz": [2.438877, 0.144781, -3.589534], "properties": {}}, {"name": "H", "species": [{"element": "H", "occu": 1}], "xyz": [2.284992, -1.104797, -4.839773], "properties": {}}, {"name": "H", "species": [{"element": "H", "occu": 1}], "xyz": [0.925096, -0.762318, -3.754552], "properties": {}}]}, "smiles": "FC(F)(OCCC)CC(F)(F)F", "inchi": "InChI=1S/C6H9F5O/c1-2-3-12-6(10,11)4-5(7,8)9/h2-4H2,1H3", "formula_alphabetical": "C6 F5 H9 O1", "chemsys": "C-F-H-O", "energy": -808.55514105, "esp": {"1": ["F", -0.236021], "2": ["F", -0.251778], "3": ["F", -0.221163], "4": ["F", -0.210779], "5": ["F", -0.235066], "6": ["O", -0.302129], "7": ["C", -0.591846], "8": ["C", 0.63997], "9": ["C", -0.016927], "10": ["C", 0.116452], "11": ["C", 0.722008], "12": ["C", -0.232595], "13": ["H", 0.224611], "14": ["H", 0.21793], "15": ["H", 0.071027], "16": ["H", 0.092924], "17": ["H", 0.014834], "18": ["H", 0.001031], "19": ["H", 0.075977], "20": ["H", 0.059144], "21": ["H", 0.062395]}, "dipole_moment": {"X": 0.6396, "Y": -2.04, "Z": -0.2449, "Tot": 2.1519}, "functional": "B3LYP", "basis": "6-31+G*", "phase": "gas", "tag": "lis", "state": "successful", "wall_time (s)": 11.982445089961402, "version": "0.0.1", "gauss_version": "ES64L-G16RevC.01", "last_updated": "2021-09-14 20:57:20.439000", "polarizability": 79.02, "fluorinated-solvent": "59129808", "run_ids": ["61410c82997b28ebf6d33ef5", "61410ca642ea656828369ea6"]}