{"_id": "61410f02a3aabb921648f670", "molecule": {"@module": "pymatgen.core.structure", "@class": "Molecule", "charge": 0, "spin_multiplicity": 1, "sites": [{"name": "F", "species": [{"element": "F", "occu": 1}], "xyz": [1.640682, 0.332881, -2.882558], "properties": {}}, {"name": "F", "species": [{"element": "F", "occu": 1}], "xyz": [3.028701, 1.787503, -2.026887], "properties": {}}, {"name": "F", "species": [{"element": "F", "occu": 1}], "xyz": [1.420902, 0.949077, -0.80491], "properties": {}}, {"name": "F", "species": [{"element": "F", "occu": 1}], "xyz": [0.916116, -2.097826, 1.20043], "properties": {}}, {"name": "F", "species": [{"element": "F", "occu": 1}], "xyz": [2.613237, -3.045731, 2.198176], "properties": {}}, {"name": "F", "species": [{"element": "F", "occu": 1}], "xyz": [2.689259, -0.922771, 1.670536], "properties": {}}, {"name": "F", "species": [{"element": "F", "occu": 1}], "xyz": [5.322653, -1.53118, -1.710975], "properties": {}}, {"name": "F", "species": [{"element": "F", "occu": 1}], "xyz": [3.949628, -1.300072, -3.430321], "properties": {}}, {"name": "F", "species": [{"element": "F", "occu": 1}], "xyz": [1.243882, -4.005913, -0.90255], "properties": {}}, {"name": "F", "species": [{"element": "F", "occu": 1}], "xyz": [3.320452, -4.23381, -1.627383], "properties": {}}, {"name": "O", "species": [{"element": "O", "occu": 1}], "xyz": [2.495864, -1.601512, -1.095017], "properties": {}}, {"name": "C", "species": [{"element": "C", "occu": 1}], "xyz": [3.273517, -0.443856, -1.303105], "properties": {}}, {"name": "C", "species": [{"element": "C", "occu": 1}], "xyz": [2.908456, -2.499292, -0.089304], "properties": {}}, {"name": "C", "species": [{"element": "C", "occu": 1}], "xyz": [2.312844, 0.659029, -1.769491], "properties": {}}, {"name": "C", "species": [{"element": "C", "occu": 1}], "xyz": [2.252466, -2.139122, 1.254227], "properties": {}}, {"name": "C", "species": [{"element": "C", "occu": 1}], "xyz": [4.409183, -0.686223, -2.309717], "properties": {}}, {"name": "C", "species": [{"element": "C", "occu": 1}], "xyz": [2.555138, -3.923702, -0.538062], "properties": {}}, {"name": "H", "species": [{"element": "H", "occu": 1}], "xyz": [3.727404, -0.073696, -0.376398], "properties": {}}, {"name": "H", "species": [{"element": "H", "occu": 1}], "xyz": [3.991866, -2.476976, 0.071285], "properties": {}}, {"name": "H", "species": [{"element": "H", "occu": 1}], "xyz": [4.932729, 0.231073, -2.593706], "properties": {}}, {"name": "H", "species": [{"element": "H", "occu": 1}], "xyz": [2.74746, -4.664361, 0.244009], "properties": {}}]}, "smiles": "FC(F)(F)[C@@H](O[C@@H](C(F)(F)F)C(F)F)C(F)F", "inchi": "InChI=1S/C6H4F10O/c7-3(8)1(5(11,12)13)17-2(4(9)10)6(14,15)16/h1-4H/t1-,2+", "formula_alphabetical": "C6 F10 H4 O1", "chemsys": "C-F-H-O", "energy": -1304.74181345, "esp": {"1": ["F", -0.159408], "2": ["F", -0.199783], "3": ["F", -0.163356], "4": ["F", -0.14409], "5": ["F", -0.192825], "6": ["F", -0.176992], "7": ["F", -0.231953], "8": ["F", -0.181382], "9": ["F", -0.198598], "10": ["F", -0.194528], "11": ["O", -0.087702], "12": ["C", -0.30827], "13": ["C", -0.3226], "14": ["C", 0.568505], "15": ["C", 0.556633], "16": ["C", 0.424248], "17": ["C", 0.404574], "18": ["H", 0.205059], "19": ["H", 0.22255], "20": ["H", 0.087959], "21": ["H", 0.091959]}, "dipole_moment": {"X": 2.7926, "Y": 0.5529, "Z": 1.7855, "Tot": 3.3604}, "functional": "B3LYP", "basis": "6-31+G*", "phase": "gas", "tag": "lis", "state": "successful", "wall_time (s)": 18.811881828005426, "version": "0.0.1", "gauss_version": "ES64L-G16RevC.01", "last_updated": "2021-09-14 21:07:14.043000", "polarizability": 82.31, "fluorinated-solvent": "56985922", "run_ids": ["61410eaa6d2e63667e86e5e7", "61410ee11556ecfeb39e2800"]}