{"_id": "61412e0e86a4a3ee5857f59e", "molecule": {"@module": "pymatgen.core.structure", "@class": "Molecule", "charge": 0, "spin_multiplicity": 1, "sites": [{"name": "F", "species": [{"element": "F", "occu": 1}], "xyz": [4.628394, 2.572641, 0.571619], "properties": {}}, {"name": "F", "species": [{"element": "F", "occu": 1}], "xyz": [4.673, 0.570814, 1.495229], "properties": {}}, {"name": "F", "species": [{"element": "F", "occu": 1}], "xyz": [0.41217, 3.783859, 2.601557], "properties": {}}, {"name": "F", "species": [{"element": "F", "occu": 1}], "xyz": [6.263602, 0.797901, -0.717757], "properties": {}}, {"name": "F", "species": [{"element": "F", "occu": 1}], "xyz": [4.595126, -0.578831, -1.017435], "properties": {}}, {"name": "F", "species": [{"element": "F", "occu": 1}], "xyz": [4.553523, 1.403988, -1.93304], "properties": {}}, {"name": "F", "species": [{"element": "F", "occu": 1}], "xyz": [-1.526053, 2.841968, 4.252598], "properties": {}}, {"name": "F", "species": [{"element": "F", "occu": 1}], "xyz": [-1.978914, 2.310594, 2.185859], "properties": {}}, {"name": "F", "species": [{"element": "F", "occu": 1}], "xyz": [-1.221132, 0.790869, 3.563466], "properties": {}}, {"name": "O", "species": [{"element": "O", "occu": 1}], "xyz": [2.170582, 1.742953, 1.508681], "properties": {}}, {"name": "C", "species": [{"element": "C", "occu": 1}], "xyz": [2.701948, 1.199568, 0.324344], "properties": {}}, {"name": "C", "species": [{"element": "C", "occu": 1}], "xyz": [0.757125, 1.663401, 1.571712], "properties": {}}, {"name": "C", "species": [{"element": "C", "occu": 1}], "xyz": [4.221325, 1.281398, 0.422017], "properties": {}}, {"name": "C", "species": [{"element": "C", "occu": 1}], "xyz": [0.324934, 2.414502, 2.819946], "properties": {}}, {"name": "C", "species": [{"element": "C", "occu": 1}], "xyz": [4.933893, 0.71565, -0.836159], "properties": {}}, {"name": "C", "species": [{"element": "C", "occu": 1}], "xyz": [-1.121884, 2.097432, 3.209497], "properties": {}}, {"name": "H", "species": [{"element": "H", "occu": 1}], "xyz": [2.377198, 1.764262, -0.561636], "properties": {}}, {"name": "H", "species": [{"element": "H", "occu": 1}], "xyz": [2.420862, 0.143448, 0.198474], "properties": {}}, {"name": "H", "species": [{"element": "H", "occu": 1}], "xyz": [0.290667, 2.133608, 0.693924], "properties": {}}, {"name": "H", "species": [{"element": "H", "occu": 1}], "xyz": [0.428418, 0.614615, 1.630448], "properties": {}}, {"name": "H", "species": [{"element": "H", "occu": 1}], "xyz": [0.970397, 2.161443, 3.667095], "properties": {}}]}, "smiles": "FC(F)(COC[C@@H](F)C(F)(F)F)C(F)(F)F", "inchi": "InChI=1S/C6H5F9O/c7-3(5(10,11)12)1-16-2-4(8,9)6(13,14)15/h3H,1-2H2/t3-/m1/s1", "formula_alphabetical": "C6 F9 H5 O1", "chemsys": "C-F-H-O", "energy": -1205.49887864, "esp": {"1": ["F", -0.146657], "2": ["F", -0.154565], "3": ["F", -0.195912], "4": ["F", -0.139356], "5": ["F", -0.172568], "6": ["F", -0.17653], "7": ["F", -0.163352], "8": ["F", -0.183331], "9": ["F", -0.192223], "10": ["O", -0.232589], "11": ["C", -0.016961], "12": ["C", 0.016975], "13": ["C", 0.198349], "14": ["C", 0.020778], "15": ["C", 0.49857], "16": ["C", 0.513776], "17": ["H", 0.107396], "18": ["H", 0.093745], "19": ["H", 0.106226], "20": ["H", 0.077221], "21": ["H", 0.141008]}, "dipole_moment": {"X": -1.1125, "Y": -1.839, "Z": -1.2712, "Tot": 2.4971}, "functional": "B3LYP", "basis": "6-31+G*", "phase": "gas", "tag": "lis", "state": "successful", "wall_time (s)": 13.8867912159767, "version": "0.0.1", "gauss_version": "ES64L-G16RevC.01", "last_updated": "2021-09-14 23:19:42.535000", "polarizability": 83.15, "fluorinated-solvent": "87668343", "run_ids": ["61412debcf56572a8aac8814", "61412e04e142af6f1f921fd3"]}