{"_id": "613a515a0fb586263c89e53e", "molecule": {"@module": "pymatgen.core.structure", "@class": "Molecule", "charge": 0, "spin_multiplicity": 1, "sites": [{"name": "F", "species": [{"element": "F", "occu": 1}], "xyz": [3.31638, 0.849243, 0.553674], "properties": {}}, {"name": "F", "species": [{"element": "F", "occu": 1}], "xyz": [1.193968, 0.316052, 0.287389], "properties": {}}, {"name": "F", "species": [{"element": "F", "occu": 1}], "xyz": [2.558066, -1.384539, 1.939977], "properties": {}}, {"name": "F", "species": [{"element": "F", "occu": 1}], "xyz": [1.898571, -2.350632, 0.095688], "properties": {}}, {"name": "F", "species": [{"element": "F", "occu": 1}], "xyz": [4.001559, -1.821925, 0.360535], "properties": {}}, {"name": "F", "species": [{"element": "F", "occu": 1}], "xyz": [3.765948, 1.163896, -3.786844], "properties": {}}, {"name": "F", "species": [{"element": "F", "occu": 1}], "xyz": [1.65691, 0.638094, -4.043648], "properties": {}}, {"name": "O", "species": [{"element": "O", "occu": 1}], "xyz": [2.387702, 1.264469, -2.000474], "properties": {}}, {"name": "C", "species": [{"element": "C", "occu": 1}], "xyz": [2.469175, -0.043226, -0.032015], "properties": {}}, {"name": "C", "species": [{"element": "C", "occu": 1}], "xyz": [2.663088, -0.061391, -1.541412], "properties": {}}, {"name": "C", "species": [{"element": "C", "occu": 1}], "xyz": [2.736184, -1.429452, 0.615299], "properties": {}}, {"name": "C", "species": [{"element": "C", "occu": 1}], "xyz": [2.501285, 1.46211, -3.338314], "properties": {}}, {"name": "H", "species": [{"element": "H", "occu": 1}], "xyz": [3.69453, -0.345844, -1.768412], "properties": {}}, {"name": "H", "species": [{"element": "H", "occu": 1}], "xyz": [1.967607, -0.779671, -1.984895], "properties": {}}, {"name": "H", "species": [{"element": "H", "occu": 1}], "xyz": [2.269458, 2.502566, -3.565039], "properties": {}}]}, "smiles": "FC(F)(COC(F)F)C(F)(F)F", "inchi": "InChI=1S/C4H3F7O/c5-2(6)12-1-3(7,8)4(9,10)11/h2H,1H2", "formula_alphabetical": "C4 F7 H3 O1", "chemsys": "C-F-H-O", "energy": -928.393216044, "esp": {"1": ["F", -0.163902], "2": ["F", -0.162797], "3": ["F", -0.14133], "4": ["F", -0.179913], "5": ["F", -0.177071], "6": ["F", -0.221728], "7": ["F", -0.224394], "8": ["O", -0.322429], "9": ["C", 0.252082], "10": ["C", 0.072419], "11": ["C", 0.491406], "12": ["C", 0.444326], "13": ["H", 0.103932], "14": ["H", 0.109436], "15": ["H", 0.119962]}, "dipole_moment": {"X": 0.0869, "Y": 0.2096, "Z": -1.0805, "Tot": 1.104}, "functional": "B3LYP", "basis": "6-31+G*", "phase": "gas", "tag": "lis", "state": "successful", "wall_time (s)": 21.409533653990366, "version": "0.0.1", "gauss_version": "ES64L-G16RevC.01", "last_updated": "2021-09-09 18:24:26.049000", "polarizability": 58.09, "fluorinated-solvent": "92551", "run_ids": ["613a4aa2580cb76820714530", "613a5149d0f60e9896c75cc3"]}