{"_id": "61411c103cafc923a3f81d49", "molecule": {"@module": "pymatgen.core.structure", "@class": "Molecule", "charge": 0, "spin_multiplicity": 1, "sites": [{"name": "F", "species": [{"element": "F", "occu": 1}], "xyz": [2.581055, 0.149644, 3.56006], "properties": {}}, {"name": "F", "species": [{"element": "F", "occu": 1}], "xyz": [0.811732, -0.451118, 2.421808], "properties": {}}, {"name": "F", "species": [{"element": "F", "occu": 1}], "xyz": [0.940349, 4.1295, 0.007394], "properties": {}}, {"name": "F", "species": [{"element": "F", "occu": 1}], "xyz": [2.751157, 4.673696, 1.098032], "properties": {}}, {"name": "F", "species": [{"element": "F", "occu": 1}], "xyz": [2.791194, 4.530318, -1.081267], "properties": {}}, {"name": "F", "species": [{"element": "F", "occu": 1}], "xyz": [4.125915, -1.673228, 2.112505], "properties": {}}, {"name": "F", "species": [{"element": "F", "occu": 1}], "xyz": [2.376527, -2.56148, 3.129715], "properties": {}}, {"name": "O", "species": [{"element": "O", "occu": 1}], "xyz": [2.558581, 0.462596, 1.32501], "properties": {}}, {"name": "C", "species": [{"element": "C", "occu": 1}], "xyz": [2.671398, 2.500185, 0.130012], "properties": {}}, {"name": "C", "species": [{"element": "C", "occu": 1}], "xyz": [2.115941, 1.840769, 1.386012], "properties": {}}, {"name": "C", "species": [{"element": "C", "occu": 1}], "xyz": [2.18206, -0.337018, 2.346476], "properties": {}}, {"name": "C", "species": [{"element": "C", "occu": 1}], "xyz": [2.288221, 3.960844, 0.038723], "properties": {}}, {"name": "C", "species": [{"element": "C", "occu": 1}], "xyz": [2.765798, -1.745023, 2.113663], "properties": {}}, {"name": "H", "species": [{"element": "H", "occu": 1}], "xyz": [3.763543, 2.438181, 0.12002], "properties": {}}, {"name": "H", "species": [{"element": "H", "occu": 1}], "xyz": [2.289925, 1.998457, -0.764194], "properties": {}}, {"name": "H", "species": [{"element": "H", "occu": 1}], "xyz": [1.022785, 1.870016, 1.405988], "properties": {}}, {"name": "H", "species": [{"element": "H", "occu": 1}], "xyz": [2.511265, 2.307552, 2.292128], "properties": {}}, {"name": "H", "species": [{"element": "H", "occu": 1}], "xyz": [2.423591, -2.160313, 1.161772], "properties": {}}]}, "smiles": "FC(F)(OCCC(F)(F)F)C(F)F", "inchi": "InChI=1S/C5H5F7O/c6-3(7)5(11,12)13-2-1-4(8,9)10/h3H,1-2H2", "formula_alphabetical": "C5 F7 H5 O1", "chemsys": "C-F-H-O", "energy": -967.719274268, "esp": {"1": ["F", -0.157871], "2": ["F", -0.202422], "3": ["F", -0.217512], "4": ["F", -0.215529], "5": ["F", -0.207315], "6": ["F", -0.192806], "7": ["F", -0.192463], "8": ["O", -0.401201], "9": ["C", -0.429984], "10": ["C", 0.381115], "11": ["C", 0.380762], "12": ["C", 0.629412], "13": ["C", 0.315694], "14": ["H", 0.170568], "15": ["H", 0.164151], "16": ["H", 0.032108], "17": ["H", 0.02757], "18": ["H", 0.115723]}, "dipole_moment": {"X": -0.1201, "Y": -0.4185, "Z": -1.9776, "Tot": 2.025}, "functional": "B3LYP", "basis": "6-31+G*", "phase": "gas", "tag": "lis", "state": "successful", "wall_time (s)": 10.194061096059158, "version": "0.0.1", "gauss_version": "ES64L-G16RevC.01", "last_updated": "2021-09-14 22:02:55.884000", "polarizability": 69.38, "fluorinated-solvent": "88850824", "run_ids": ["61411bf441cfa3926f185c9e", "61411c067191c604fc3705a8"]}