{"_id": "6141182f0710b4e46481bff1", "molecule": {"@module": "pymatgen.core.structure", "@class": "Molecule", "charge": 0, "spin_multiplicity": 1, "sites": [{"name": "F", "species": [{"element": "F", "occu": 1}], "xyz": [2.473508, -1.482515, -2.642937], "properties": {}}, {"name": "F", "species": [{"element": "F", "occu": 1}], "xyz": [0.610829, -0.707624, -1.799904], "properties": {}}, {"name": "F", "species": [{"element": "F", "occu": 1}], "xyz": [1.966315, 1.15229, -3.349741], "properties": {}}, {"name": "O", "species": [{"element": "O", "occu": 1}], "xyz": [2.431797, -0.860993, -0.470988], "properties": {}}, {"name": "C", "species": [{"element": "C", "occu": 1}], "xyz": [2.719862, -2.287745, 1.473407], "properties": {}}, {"name": "C", "species": [{"element": "C", "occu": 1}], "xyz": [2.125945, -2.177676, 0.064243], "properties": {}}, {"name": "C", "species": [{"element": "C", "occu": 1}], "xyz": [2.099835, -1.219684, 2.393114], "properties": {}}, {"name": "C", "species": [{"element": "C", "occu": 1}], "xyz": [2.37316, -3.693845, 2.000346], "properties": {}}, {"name": "C", "species": [{"element": "C", "occu": 1}], "xyz": [4.248962, -2.115321, 1.417342], "properties": {}}, {"name": "C", "species": [{"element": "C", "occu": 1}], "xyz": [1.983046, -0.585876, -1.715337], "properties": {}}, {"name": "C", "species": [{"element": "C", "occu": 1}], "xyz": [2.410093, 0.832172, -2.075174], "properties": {}}, {"name": "H", "species": [{"element": "H", "occu": 1}], "xyz": [1.037325, -2.297937, 0.087287], "properties": {}}, {"name": "H", "species": [{"element": "H", "occu": 1}], "xyz": [2.557661, -2.931761, -0.602889], "properties": {}}, {"name": "H", "species": [{"element": "H", "occu": 1}], "xyz": [1.0089, -1.32802, 2.445553], "properties": {}}, {"name": "H", "species": [{"element": "H", "occu": 1}], "xyz": [2.497377, -1.31466, 3.410788], "properties": {}}, {"name": "H", "species": [{"element": "H", "occu": 1}], "xyz": [2.323409, -0.21038, 2.032335], "properties": {}}, {"name": "H", "species": [{"element": "H", "occu": 1}], "xyz": [2.800414, -4.47881, 1.36341], "properties": {}}, {"name": "H", "species": [{"element": "H", "occu": 1}], "xyz": [2.776024, -3.828377, 3.011087], "properties": {}}, {"name": "H", "species": [{"element": "H", "occu": 1}], "xyz": [1.287803, -3.848505, 2.050193], "properties": {}}, {"name": "H", "species": [{"element": "H", "occu": 1}], "xyz": [4.708372, -2.869567, 0.765667], "properties": {}}, {"name": "H", "species": [{"element": "H", "occu": 1}], "xyz": [4.520728, -1.125995, 1.034972], "properties": {}}, {"name": "H", "species": [{"element": "H", "occu": 1}], "xyz": [4.682648, -2.225635, 2.418576], "properties": {}}, {"name": "H", "species": [{"element": "H", "occu": 1}], "xyz": [1.967759, 1.529988, -1.359088], "properties": {}}, {"name": "H", "species": [{"element": "H", "occu": 1}], "xyz": [3.50158, 0.891899, -2.053414], "properties": {}}]}, "smiles": "FC(F)(OCC(C)(C)C)CF", "inchi": "InChI=1S/C7H13F3O/c1-6(2,3)5-11-7(9,10)4-8/h4-5H2,1-3H3", "formula_alphabetical": "C7 F3 H13 O1", "chemsys": "C-F-H-O", "energy": -649.361252111, "esp": {"1": ["F", -0.247092], "2": ["F", -0.247634], "3": ["F", -0.249246], "4": ["O", -0.489354], "5": ["C", 0.624152], "6": ["C", 0.037554], "7": ["C", -0.397738], "8": ["C", -0.56806], "9": ["C", -0.357636], "10": ["C", 0.646603], "11": ["C", 0.078178], "12": ["H", 0.062873], "13": ["H", 0.061901], "14": ["H", 0.089186], "15": ["H", 0.084679], "16": ["H", 0.08577], "17": ["H", 0.11329], "18": ["H", 0.141644], "19": ["H", 0.114504], "20": ["H", 0.078699], "21": ["H", 0.077633], "22": ["H", 0.073117], "23": ["H", 0.094063], "24": ["H", 0.092916]}, "dipole_moment": {"X": 1.2373, "Y": -0.5736, "Z": 3.2605, "Tot": 3.5342}, "functional": "B3LYP", "basis": "6-31+G*", "phase": "gas", "tag": "lis", "state": "successful", "wall_time (s)": 13.374673360958695, "version": "0.0.1", "gauss_version": "ES64L-G16RevC.01", "last_updated": "2021-09-14 21:46:23.460000", "polarizability": 89.93, "fluorinated-solvent": "139683197", "run_ids": ["6141180ee32630a0f5c98c54", "6141182baaa49f75e90ef2f0"]}