{"_id": "6141223d059b490a106626c0", "molecule": {"@module": "pymatgen.core.structure", "@class": "Molecule", "charge": 0, "spin_multiplicity": 1, "sites": [{"name": "F", "species": [{"element": "F", "occu": 1}], "xyz": [1.238109, -0.445222, 0.427565], "properties": {}}, {"name": "F", "species": [{"element": "F", "occu": 1}], "xyz": [3.320531, -0.948889, 0.854847], "properties": {}}, {"name": "F", "species": [{"element": "F", "occu": 1}], "xyz": [4.408285, 2.892781, 1.663649], "properties": {}}, {"name": "F", "species": [{"element": "F", "occu": 1}], "xyz": [0.485574, 2.245036, 0.858293], "properties": {}}, {"name": "O", "species": [{"element": "O", "occu": 1}], "xyz": [2.824548, 0.121822, -1.071014], "properties": {}}, {"name": "C", "species": [{"element": "C", "occu": 1}], "xyz": [2.72401, 1.355171, 0.953622], "properties": {}}, {"name": "C", "species": [{"element": "C", "occu": 1}], "xyz": [2.521471, 0.017408, 0.244926], "properties": {}}, {"name": "C", "species": [{"element": "C", "occu": 1}], "xyz": [4.18805, 1.788439, 0.822138], "properties": {}}, {"name": "C", "species": [{"element": "C", "occu": 1}], "xyz": [1.800008, 2.450421, 0.420787], "properties": {}}, {"name": "C", "species": [{"element": "C", "occu": 1}], "xyz": [2.657659, -1.068735, -1.890393], "properties": {}}, {"name": "C", "species": [{"element": "C", "occu": 1}], "xyz": [3.008062, -0.688686, -3.320397], "properties": {}}, {"name": "C", "species": [{"element": "C", "occu": 1}], "xyz": [2.069946, 0.367453, -3.915541], "properties": {}}, {"name": "H", "species": [{"element": "H", "occu": 1}], "xyz": [2.502999, 1.191065, 2.013642], "properties": {}}, {"name": "H", "species": [{"element": "H", "occu": 1}], "xyz": [4.867131, 0.992389, 1.136021], "properties": {}}, {"name": "H", "species": [{"element": "H", "occu": 1}], "xyz": [4.42997, 2.100085, -0.198779], "properties": {}}, {"name": "H", "species": [{"element": "H", "occu": 1}], "xyz": [2.123359, 3.422531, 0.803345], "properties": {}}, {"name": "H", "species": [{"element": "H", "occu": 1}], "xyz": [1.78896, 2.462557, -0.673958], "properties": {}}, {"name": "H", "species": [{"element": "H", "occu": 1}], "xyz": [3.319738, -1.850997, -1.505081], "properties": {}}, {"name": "H", "species": [{"element": "H", "occu": 1}], "xyz": [1.618146, -1.404329, -1.809118], "properties": {}}, {"name": "H", "species": [{"element": "H", "occu": 1}], "xyz": [4.047096, -0.335188, -3.348271], "properties": {}}, {"name": "H", "species": [{"element": "H", "occu": 1}], "xyz": [2.970712, -1.608478, -3.919755], "properties": {}}, {"name": "H", "species": [{"element": "H", "occu": 1}], "xyz": [2.114523, 1.299358, -3.342142], "properties": {}}, {"name": "H", "species": [{"element": "H", "occu": 1}], "xyz": [2.342601, 0.593816, -4.952449], "properties": {}}, {"name": "H", "species": [{"element": "H", "occu": 1}], "xyz": [1.029483, 0.018743, -3.90833], "properties": {}}]}, "smiles": "FC(F)(OCCC)C(CF)CF", "inchi": "InChI=1S/C7H12F4O/c1-2-3-12-7(10,11)6(4-8)5-9/h6H,2-5H2,1H3", "formula_alphabetical": "C7 F4 H12 O1", "chemsys": "C-F-H-O", "energy": -748.60115373, "esp": {"1": ["F", -0.22249], "2": ["F", -0.259658], "3": ["F", -0.266565], "4": ["F", -0.307657], "5": ["O", -0.308432], "6": ["C", -0.08768], "7": ["C", 0.510724], "8": ["C", 0.093766], "9": ["C", 0.274054], "10": ["C", -0.011334], "11": ["C", 0.095449], "12": ["C", -0.161732], "13": ["H", 0.114793], "14": ["H", 0.092784], "15": ["H", 0.052219], "16": ["H", 0.041617], "17": ["H", 0.027481], "18": ["H", 0.075779], "19": ["H", 0.096005], "20": ["H", 0.009762], "21": ["H", 0.004318], "22": ["H", 0.044709], "23": ["H", 0.042546], "24": ["H", 0.049543]}, "dipole_moment": {"X": 1.6547, "Y": -0.9262, "Z": -3.2213, "Tot": 3.738}, "functional": "B3LYP", "basis": "6-31+G*", "phase": "gas", "tag": "lis", "state": "successful", "wall_time (s)": 11.882552562979981, "version": "0.0.1", "gauss_version": "ES64L-G16RevC.01", "last_updated": "2021-09-14 22:29:17.607000", "polarizability": 88.92, "fluorinated-solvent": "58957512", "run_ids": ["6141221d3e7e8c322bbf9c4c", "614122354fe9c0b6ea09b6f2"]}