{"_id": "613a585fc37c8f7ac8b3416e", "molecule": {"@module": "pymatgen.core.structure", "@class": "Molecule", "charge": 0, "spin_multiplicity": 1, "sites": [{"name": "F", "species": [{"element": "F", "occu": 1}], "xyz": [1.055396, 0.07001, 0.259567], "properties": {}}, {"name": "F", "species": [{"element": "F", "occu": 1}], "xyz": [2.905486, 0.562757, 1.306835], "properties": {}}, {"name": "F", "species": [{"element": "F", "occu": 1}], "xyz": [1.16059, 2.498067, -1.074758], "properties": {}}, {"name": "F", "species": [{"element": "F", "occu": 1}], "xyz": [3.006183, 2.992838, -0.024697], "properties": {}}, {"name": "F", "species": [{"element": "F", "occu": 1}], "xyz": [2.984561, 2.894675, -2.203983], "properties": {}}, {"name": "F", "species": [{"element": "F", "occu": 1}], "xyz": [2.581471, -3.96706, -0.539084], "properties": {}}, {"name": "F", "species": [{"element": "F", "occu": 1}], "xyz": [4.431867, -3.475826, 0.504222], "properties": {}}, {"name": "F", "species": [{"element": "F", "occu": 1}], "xyz": [2.781015, -4.408654, 1.593122], "properties": {}}, {"name": "O", "species": [{"element": "O", "occu": 1}], "xyz": [2.858167, -1.246325, -0.032024], "properties": {}}, {"name": "C", "species": [{"element": "C", "occu": 1}], "xyz": [2.889873, 0.846009, -1.072388], "properties": {}}, {"name": "C", "species": [{"element": "C", "occu": 1}], "xyz": [2.424691, 0.037406, 0.129646], "properties": {}}, {"name": "C", "species": [{"element": "C", "occu": 1}], "xyz": [2.512215, -2.160215, 1.011361], "properties": {}}, {"name": "C", "species": [{"element": "C", "occu": 1}], "xyz": [2.498174, 2.314804, -1.075844], "properties": {}}, {"name": "C", "species": [{"element": "C", "occu": 1}], "xyz": [3.08864, -3.511498, 0.625115], "properties": {}}, {"name": "H", "species": [{"element": "H", "occu": 1}], "xyz": [3.979467, 0.787612, -1.119334], "properties": {}}, {"name": "H", "species": [{"element": "H", "occu": 1}], "xyz": [2.476532, 0.384874, -1.972024], "properties": {}}, {"name": "H", "species": [{"element": "H", "occu": 1}], "xyz": [2.950695, -1.853737, 1.964965], "properties": {}}, {"name": "H", "species": [{"element": "H", "occu": 1}], "xyz": [1.427287, -2.257926, 1.105893], "properties": {}}]}, "smiles": "FC(F)(OCC(F)(F)F)CC(F)(F)F", "inchi": "InChI=1S/C5H4F8O/c6-3(7,8)1-5(12,13)14-2-4(9,10)11/h1-2H2", "formula_alphabetical": "C5 F8 H4 O1", "chemsys": "C-F-H-O", "energy": -1066.97629419, "esp": {"1": ["F", -0.231254], "2": ["F", -0.229229], "3": ["F", -0.202533], "4": ["F", -0.203175], "5": ["F", -0.215964], "6": ["F", -0.199309], "7": ["F", -0.199625], "8": ["F", -0.229352], "9": ["O", -0.354471], "10": ["C", -0.569295], "11": ["C", 0.727312], "12": ["C", -0.188719], "13": ["C", 0.673141], "14": ["C", 0.667156], "15": ["H", 0.217231], "16": ["H", 0.218653], "17": ["H", 0.15926], "18": ["H", 0.160175]}, "dipole_moment": {"X": 0.2055, "Y": -0.8759, "Z": 0.062, "Tot": 0.9018}, "functional": "B3LYP", "basis": "6-31+G*", "phase": "gas", "tag": "lis", "state": "successful", "wall_time (s)": 11.397025881917216, "version": "0.0.1", "gauss_version": "ES64L-G16RevC.01", "last_updated": "2021-09-09 18:54:22.894000", "polarizability": 69.96, "fluorinated-solvent": "11680241", "run_ids": ["613a4b0e0ac076510a981521", "613a585525584525ab068e7c"]}