{"_id": "61412bb3849912b986b205de", "molecule": {"@module": "pymatgen.core.structure", "@class": "Molecule", "charge": 0, "spin_multiplicity": 1, "sites": [{"name": "F", "species": [{"element": "F", "occu": 1}], "xyz": [1.353771, -0.377163, -0.33319], "properties": {}}, {"name": "F", "species": [{"element": "F", "occu": 1}], "xyz": [3.479326, -0.401502, -0.838295], "properties": {}}, {"name": "F", "species": [{"element": "F", "occu": 1}], "xyz": [2.413542, 1.812861, -2.091483], "properties": {}}, {"name": "F", "species": [{"element": "F", "occu": 1}], "xyz": [0.741923, 2.278621, -0.768243], "properties": {}}, {"name": "F", "species": [{"element": "F", "occu": 1}], "xyz": [4.198698, -0.210556, 1.779473], "properties": {}}, {"name": "F", "species": [{"element": "F", "occu": 1}], "xyz": [4.000707, 3.664051, -0.882785], "properties": {}}, {"name": "F", "species": [{"element": "F", "occu": 1}], "xyz": [2.110845, 4.49911, -1.577587], "properties": {}}, {"name": "F", "species": [{"element": "F", "occu": 1}], "xyz": [2.052493, -0.734444, 3.666986], "properties": {}}, {"name": "F", "species": [{"element": "F", "occu": 1}], "xyz": [1.651894, 6.215142, 0.800454], "properties": {}}, {"name": "F", "species": [{"element": "F", "occu": 1}], "xyz": [2.151902, 4.839663, 3.236374], "properties": {}}, {"name": "O", "species": [{"element": "O", "occu": 1}], "xyz": [2.628682, 1.444062, 0.138408], "properties": {}}, {"name": "O", "species": [{"element": "O", "occu": 1}], "xyz": [2.379734, 4.072564, 0.625891], "properties": {}}, {"name": "C", "species": [{"element": "C", "occu": 1}], "xyz": [2.584479, 0.056618, 0.0681], "properties": {}}, {"name": "C", "species": [{"element": "C", "occu": 1}], "xyz": [2.092641, 2.239468, -0.851002], "properties": {}}, {"name": "C", "species": [{"element": "C", "occu": 1}], "xyz": [2.880874, -0.514162, 1.459896], "properties": {}}, {"name": "C", "species": [{"element": "C", "occu": 1}], "xyz": [2.654155, 3.67657, -0.643589], "properties": {}}, {"name": "C", "species": [{"element": "C", "occu": 1}], "xyz": [1.947241, 0.050321, 2.517356], "properties": {}}, {"name": "C", "species": [{"element": "C", "occu": 1}], "xyz": [2.742032, 5.391711, 0.988904], "properties": {}}, {"name": "C", "species": [{"element": "C", "occu": 1}], "xyz": [3.15454, 5.39038, 2.448446], "properties": {}}, {"name": "H", "species": [{"element": "H", "occu": 1}], "xyz": [2.786541, -1.603205, 1.398698], "properties": {}}, {"name": "H", "species": [{"element": "H", "occu": 1}], "xyz": [2.231824, 1.075279, 2.769699], "properties": {}}, {"name": "H", "species": [{"element": "H", "occu": 1}], "xyz": [0.907983, 0.017769, 2.17495], "properties": {}}, {"name": "H", "species": [{"element": "H", "occu": 1}], "xyz": [3.55503, 5.76201, 0.35495], "properties": {}}, {"name": "H", "species": [{"element": "H", "occu": 1}], "xyz": [4.06242, 4.789862, 2.569587], "properties": {}}, {"name": "H", "species": [{"element": "H", "occu": 1}], "xyz": [3.328728, 6.42051, 2.77555], "properties": {}}]}, "smiles": "FC(F)(OC(F)(F)C(F)(F)O[C@@H](F)CF)[C@@H](F)CF", "inchi": "InChI=1S/C7H6F10O2/c8-1-3(10)5(12,13)19-7(16,17)6(14,15)18-4(11)2-9/h3-4H,1-2H2/t3-,4+/m0/s1", "formula_alphabetical": "C7 F10 H6 O2", "chemsys": "C-F-H-O", "energy": -1419.27066329, "esp": {"1": ["F", -0.173249], "2": ["F", -0.154611], "3": ["F", -0.133063], "4": ["F", -0.150165], "5": ["F", -0.215084], "6": ["F", -0.175163], "7": ["F", -0.155624], "8": ["F", -0.257849], "9": ["F", -0.205428], "10": ["F", -0.208922], "11": ["O", -0.287442], "12": ["O", -0.287817], "13": ["C", 0.403878], "14": ["C", 0.422667], "15": ["C", 0.115712], "16": ["C", 0.395434], "17": ["C", 0.142535], "18": ["C", 0.293003], "19": ["C", 0.046169], "20": ["H", 0.125073], "21": ["H", 0.096717], "22": ["H", 0.070823], "23": ["H", 0.097485], "24": ["H", 0.095864], "25": ["H", 0.099058]}, "dipole_moment": {"X": 1.5795, "Y": 1.5495, "Z": 0.4276, "Tot": 2.2536}, "functional": "B3LYP", "basis": "6-31+G*", "phase": "gas", "tag": "lis", "state": "successful", "wall_time (s)": 21.795007267035544, "version": "0.0.1", "gauss_version": "ES64L-G16RevC.01", "last_updated": "2021-09-14 23:09:39.318000", "polarizability": 98.43, "fluorinated-solvent": "57667488", "run_ids": ["61412b8cb008aa204f5d9875", "61412baa2fee84dfe3365b65"]}