{"_id": "6141204b16c1f20a45f6c3d0", "molecule": {"@module": "pymatgen.core.structure", "@class": "Molecule", "charge": 0, "spin_multiplicity": 1, "sites": [{"name": "F", "species": [{"element": "F", "occu": 1}], "xyz": [4.759552, -0.638352, 0.946039], "properties": {}}, {"name": "F", "species": [{"element": "F", "occu": 1}], "xyz": [4.679086, -2.702093, 0.153003], "properties": {}}, {"name": "F", "species": [{"element": "F", "occu": 1}], "xyz": [-1.087216, -2.689959, -2.324204], "properties": {}}, {"name": "F", "species": [{"element": "F", "occu": 1}], "xyz": [0.566505, -1.726073, -3.433246], "properties": {}}, {"name": "O", "species": [{"element": "O", "occu": 1}], "xyz": [2.189163, -1.983817, -1.115424], "properties": {}}, {"name": "C", "species": [{"element": "C", "occu": 1}], "xyz": [4.264079, -1.405963, -0.100892], "properties": {}}, {"name": "C", "species": [{"element": "C", "occu": 1}], "xyz": [0.297793, -2.625902, -2.415944], "properties": {}}, {"name": "C", "species": [{"element": "C", "occu": 1}], "xyz": [2.74587, -1.348735, 0.017962], "properties": {}}, {"name": "C", "species": [{"element": "C", "occu": 1}], "xyz": [0.776827, -2.023154, -1.10052], "properties": {}}, {"name": "C", "species": [{"element": "C", "occu": 1}], "xyz": [4.872228, -0.949573, -1.412492], "properties": {}}, {"name": "C", "species": [{"element": "C", "occu": 1}], "xyz": [0.860023, -3.988292, -2.773184], "properties": {}}, {"name": "C", "species": [{"element": "C", "occu": 1}], "xyz": [4.486954, 0.480569, -1.805153], "properties": {}}, {"name": "C", "species": [{"element": "C", "occu": 1}], "xyz": [0.322142, -4.532654, -4.100523], "properties": {}}, {"name": "H", "species": [{"element": "H", "occu": 1}], "xyz": [2.455606, -1.854188, 0.950656], "properties": {}}, {"name": "H", "species": [{"element": "H", "occu": 1}], "xyz": [2.434361, -0.295588, 0.073946], "properties": {}}, {"name": "H", "species": [{"element": "H", "occu": 1}], "xyz": [0.405304, -2.643626, -0.271092], "properties": {}}, {"name": "H", "species": [{"element": "H", "occu": 1}], "xyz": [0.345712, -1.014881, -1.0113], "properties": {}}, {"name": "H", "species": [{"element": "H", "occu": 1}], "xyz": [5.958024, -1.047623, -1.299759], "properties": {}}, {"name": "H", "species": [{"element": "H", "occu": 1}], "xyz": [4.548853, -1.659581, -2.179892], "properties": {}}, {"name": "H", "species": [{"element": "H", "occu": 1}], "xyz": [1.950098, -3.889288, -2.79747], "properties": {}}, {"name": "H", "species": [{"element": "H", "occu": 1}], "xyz": [0.616477, -4.666997, -1.946488], "properties": {}}, {"name": "H", "species": [{"element": "H", "occu": 1}], "xyz": [4.743008, 1.193473, -1.013803], "properties": {}}, {"name": "H", "species": [{"element": "H", "occu": 1}], "xyz": [5.022993, 0.776761, -2.712879], "properties": {}}, {"name": "H", "species": [{"element": "H", "occu": 1}], "xyz": [3.414591, 0.559556, -2.015347], "properties": {}}, {"name": "H", "species": [{"element": "H", "occu": 1}], "xyz": [0.579623, -3.867019, -4.93036], "properties": {}}, {"name": "H", "species": [{"element": "H", "occu": 1}], "xyz": [0.756247, -5.517197, -4.304791], "properties": {}}, {"name": "H", "species": [{"element": "H", "occu": 1}], "xyz": [-0.767125, -4.638241, -4.072653], "properties": {}}]}, "smiles": "FC(F)(COCC(F)(F)CC)CC", "inchi": "InChI=1S/C8H14F4O/c1-3-7(9,10)5-13-6-8(11,12)4-2/h3-6H2,1-2H3", "formula_alphabetical": "C8 F4 H14 O1", "chemsys": "C-F-H-O", "energy": -787.924413997, "esp": {"1": ["F", -0.233408], "2": ["F", -0.246571], "3": ["F", -0.282465], "4": ["F", -0.255513], "5": ["O", -0.220665], "6": ["C", 0.335626], "7": ["C", 0.51559], "8": ["C", -0.082802], "9": ["C", -0.222787], "10": ["C", 0.067462], "11": ["C", 0.063303], "12": ["C", -0.321355], "13": ["C", -0.212644], "14": ["H", 0.130851], "15": ["H", 0.096656], "16": ["H", 0.113798], "17": ["H", 0.149052], "18": ["H", 0.059401], "19": ["H", 0.029245], "20": ["H", 0.019114], "21": ["H", 0.022888], "22": ["H", 0.08961], "23": ["H", 0.09178], "24": ["H", 0.102647], "25": ["H", 0.066662], "26": ["H", 0.058142], "27": ["H", 0.066381]}, "dipole_moment": {"X": -0.2777, "Y": 0.008, "Z": -0.0804, "Tot": 0.2892}, "functional": "B3LYP", "basis": "6-31+G*", "phase": "gas", "tag": "lis", "state": "successful", "wall_time (s)": 14.027769130072556, "version": "0.0.1", "gauss_version": "ES64L-G16RevC.01", "last_updated": "2021-09-14 22:20:59.084000", "polarizability": 100.99, "fluorinated-solvent": "152053638", "run_ids": ["6141202703b18af6123e7277", "61412041a126feb0adacc35f"]}