{"_id": "613a4fe140763e5f6725cc79", "molecule": {"@module": "pymatgen.core.structure", "@class": "Molecule", "charge": 0, "spin_multiplicity": 1, "sites": [{"name": "F", "species": [{"element": "F", "occu": 1}], "xyz": [2.674668, 2.767952, 1.976113], "properties": {}}, {"name": "F", "species": [{"element": "F", "occu": 1}], "xyz": [1.16253, 1.244813, 1.577077], "properties": {}}, {"name": "F", "species": [{"element": "F", "occu": 1}], "xyz": [2.847075, 0.709953, 3.676208], "properties": {}}, {"name": "F", "species": [{"element": "F", "occu": 1}], "xyz": [2.886359, -0.768654, 2.042432], "properties": {}}, {"name": "F", "species": [{"element": "F", "occu": 1}], "xyz": [5.296052, -0.240475, 3.332922], "properties": {}}, {"name": "F", "species": [{"element": "F", "occu": 1}], "xyz": [5.284894, 0.14414, 1.189889], "properties": {}}, {"name": "F", "species": [{"element": "F", "occu": 1}], "xyz": [5.229292, 1.81281, 2.597155], "properties": {}}, {"name": "O", "species": [{"element": "O", "occu": 1}], "xyz": [2.962676, 1.378308, 0.222447], "properties": {}}, {"name": "C", "species": [{"element": "C", "occu": 1}], "xyz": [2.938496, 1.814979, -2.136135], "properties": {}}, {"name": "C", "species": [{"element": "C", "occu": 1}], "xyz": [2.359113, 2.236871, -0.795403], "properties": {}}, {"name": "C", "species": [{"element": "C", "occu": 1}], "xyz": [2.508262, 1.501392, 1.473454], "properties": {}}, {"name": "C", "species": [{"element": "C", "occu": 1}], "xyz": [3.24604, 0.48979, 2.399836], "properties": {}}, {"name": "C", "species": [{"element": "C", "occu": 1}], "xyz": [2.683615, 0.34482, -2.509132], "properties": {}}, {"name": "C", "species": [{"element": "C", "occu": 1}], "xyz": [4.803526, 0.558646, 2.370852], "properties": {}}, {"name": "C", "species": [{"element": "C", "occu": 1}], "xyz": [1.199185, -0.029935, -2.605931], "properties": {}}, {"name": "H", "species": [{"element": "H", "occu": 1}], "xyz": [2.497445, 2.476585, -2.895637], "properties": {}}, {"name": "H", "species": [{"element": "H", "occu": 1}], "xyz": [4.017795, 2.013707, -2.12866], "properties": {}}, {"name": "H", "species": [{"element": "H", "occu": 1}], "xyz": [1.274026, 2.107441, -0.754765], "properties": {}}, {"name": "H", "species": [{"element": "H", "occu": 1}], "xyz": [2.607505, 3.275484, -0.556535], "properties": {}}, {"name": "H", "species": [{"element": "H", "occu": 1}], "xyz": [3.171938, 0.151861, -3.473319], "properties": {}}, {"name": "H", "species": [{"element": "H", "occu": 1}], "xyz": [3.179751, -0.301029, -1.774564], "properties": {}}, {"name": "H", "species": [{"element": "H", "occu": 1}], "xyz": [0.665954, 0.629984, -3.303333], "properties": {}}, {"name": "H", "species": [{"element": "H", "occu": 1}], "xyz": [1.080355, -1.058889, -2.964182], "properties": {}}, {"name": "H", "species": [{"element": "H", "occu": 1}], "xyz": [0.698285, 0.033387, -1.632609], "properties": {}}]}, "smiles": "FC(F)(OCCCC)C(F)(F)C(F)(F)F", "inchi": "InChI=1S/C7H9F7O/c1-2-3-4-15-7(13,14)5(8,9)6(10,11)12/h2-4H2,1H3", "formula_alphabetical": "C7 F7 H9 O1", "chemsys": "C-F-H-O", "energy": -1046.3325056, "esp": {"1": ["F", -0.169837], "2": ["F", -0.144088], "3": ["F", -0.122459], "4": ["F", -0.126715], "5": ["F", -0.159896], "6": ["F", -0.167116], "7": ["F", -0.161386], "8": ["O", -0.193563], "9": ["C", -0.224701], "10": ["C", 0.06529], "11": ["C", 0.296043], "12": ["C", 0.179906], "13": ["C", 0.235985], "14": ["C", 0.517423], "15": ["C", -0.262824], "16": ["H", 0.078627], "17": ["H", 0.068781], "18": ["H", 0.073813], "19": ["H", 0.084852], "20": ["H", -0.021628], "21": ["H", -0.036682], "22": ["H", 0.057239], "23": ["H", 0.063483], "24": ["H", 0.069451]}, "dipole_moment": {"X": -0.4399, "Y": 1.0081, "Z": -3.2243, "Tot": 3.4068}, "functional": "B3LYP", "basis": "6-31+G*", "phase": "gas", "tag": "lis", "state": "successful", "wall_time (s)": 15.77648391504772, "version": "0.0.1", "gauss_version": "ES64L-G16RevC.01", "last_updated": "2021-09-09 18:18:09.419000", "polarizability": 92.48, "fluorinated-solvent": "54408319", "run_ids": ["613a4a8c25ee6b77f221a778", "613a4fdcd469ac37f555c8a4"]}