{"_id": "613a5583acd877c49c262cb1", "molecule": {"@module": "pymatgen.core.structure", "@class": "Molecule", "charge": 0, "spin_multiplicity": 1, "sites": [{"name": "F", "species": [{"element": "F", "occu": 1}], "xyz": [1.072322, -0.291269, -0.58053], "properties": {}}, {"name": "F", "species": [{"element": "F", "occu": 1}], "xyz": [3.027254, -0.51288, -1.524426], "properties": {}}, {"name": "F", "species": [{"element": "F", "occu": 1}], "xyz": [1.986765, -1.050558, 1.812517], "properties": {}}, {"name": "F", "species": [{"element": "F", "occu": 1}], "xyz": [2.611975, -2.470453, 0.244106], "properties": {}}, {"name": "F", "species": [{"element": "F", "occu": 1}], "xyz": [4.489349, -2.066972, 2.169863], "properties": {}}, {"name": "F", "species": [{"element": "F", "occu": 1}], "xyz": [5.134805, -1.245561, 0.221896], "properties": {}}, {"name": "O", "species": [{"element": "O", "occu": 1}], "xyz": [2.781193, 1.036773, 0.105529], "properties": {}}, {"name": "C", "species": [{"element": "C", "occu": 1}], "xyz": [2.419117, -0.177088, -0.340438], "properties": {}}, {"name": "C", "species": [{"element": "C", "occu": 1}], "xyz": [2.271205, 2.281936, -0.508668], "properties": {}}, {"name": "C", "species": [{"element": "C", "occu": 1}], "xyz": [2.812328, -1.225547, 0.738794], "properties": {}}, {"name": "C", "species": [{"element": "C", "occu": 1}], "xyz": [4.260179, -1.083918, 1.25438], "properties": {}}, {"name": "C", "species": [{"element": "C", "occu": 1}], "xyz": [2.270758, 2.243317, -2.032649], "properties": {}}, {"name": "C", "species": [{"element": "C", "occu": 1}], "xyz": [0.920641, 2.639321, 0.103085], "properties": {}}, {"name": "H", "species": [{"element": "H", "occu": 1}], "xyz": [3.025828, 2.995321, -0.16557], "properties": {}}, {"name": "H", "species": [{"element": "H", "occu": 1}], "xyz": [4.423406, -0.1101, 1.720544], "properties": {}}, {"name": "H", "species": [{"element": "H", "occu": 1}], "xyz": [1.526114, 1.541646, -2.419462], "properties": {}}, {"name": "H", "species": [{"element": "H", "occu": 1}], "xyz": [2.020064, 3.244295, -2.402084], "properties": {}}, {"name": "H", "species": [{"element": "H", "occu": 1}], "xyz": [3.252745, 1.964242, -2.423891], "properties": {}}, {"name": "H", "species": [{"element": "H", "occu": 1}], "xyz": [0.969365, 2.590452, 1.19546], "properties": {}}, {"name": "H", "species": [{"element": "H", "occu": 1}], "xyz": [0.653597, 3.66259, -0.186169], "properties": {}}, {"name": "H", "species": [{"element": "H", "occu": 1}], "xyz": [0.134018, 1.963812, -0.243446], "properties": {}}]}, "smiles": "FC(F)(OC(C)C)C(F)(F)C(F)F", "inchi": "InChI=1S/C6H8F6O/c1-3(2)13-6(11,12)5(9,10)4(7)8/h3-4H,1-2H3", "formula_alphabetical": "C6 F6 H8 O1", "chemsys": "C-F-H-O", "energy": -907.770308796, "esp": {"1": ["F", -0.172111], "2": ["F", -0.189577], "3": ["F", -0.169144], "4": ["F", -0.136332], "5": ["F", -0.192391], "6": ["F", -0.191195], "7": ["O", -0.468747], "8": ["C", 0.427088], "9": ["C", 0.587281], "10": ["C", 0.246736], "11": ["C", 0.317297], "12": ["C", -0.52621], "13": ["C", -0.444648], "14": ["H", 0.003156], "15": ["H", 0.110254], "16": ["H", 0.156567], "17": ["H", 0.127981], "18": ["H", 0.151622], "19": ["H", 0.12001], "20": ["H", 0.102428], "21": ["H", 0.139931]}, "dipole_moment": {"X": -0.4612, "Y": 4.7225, "Z": -0.3461, "Tot": 4.7576}, "functional": "B3LYP", "basis": "6-31+G*", "phase": "gas", "tag": "lis", "state": "successful", "wall_time (s)": 12.34557315101847, "version": "0.0.1", "gauss_version": "ES64L-G16RevC.01", "last_updated": "2021-09-09 18:42:11.686000", "polarizability": 79.88, "fluorinated-solvent": "54411336", "run_ids": ["613a4ae38cf9c651e5b047a8", "613a557dedcb9ee2d0592a4c"]}