{"_id": "613a4c496203d7517787016c", "molecule": {"@module": "pymatgen.core.structure", "@class": "Molecule", "charge": 0, "spin_multiplicity": 1, "sites": [{"name": "F", "species": [{"element": "F", "occu": 1}], "xyz": [2.878941, 0.74491, -1.054878], "properties": {}}, {"name": "F", "species": [{"element": "F", "occu": 1}], "xyz": [3.2035, -1.294623, -0.272948], "properties": {}}, {"name": "F", "species": [{"element": "F", "occu": 1}], "xyz": [3.62496, 0.04185, 3.929271], "properties": {}}, {"name": "F", "species": [{"element": "F", "occu": 1}], "xyz": [1.785754, 1.197066, 3.714546], "properties": {}}, {"name": "F", "species": [{"element": "F", "occu": 1}], "xyz": [-0.083544, 1.139349, 0.909667], "properties": {}}, {"name": "F", "species": [{"element": "F", "occu": 1}], "xyz": [0.189333, 1.526772, -1.217826], "properties": {}}, {"name": "F", "species": [{"element": "F", "occu": 1}], "xyz": [-1.264648, 0.039595, -0.560407], "properties": {}}, {"name": "F", "species": [{"element": "F", "occu": 1}], "xyz": [-0.599127, -0.25308, 4.054418], "properties": {}}, {"name": "F", "species": [{"element": "F", "occu": 1}], "xyz": [0.016305, -2.007319, 2.915771], "properties": {}}, {"name": "F", "species": [{"element": "F", "occu": 1}], "xyz": [-0.359048, -2.177267, 5.05636], "properties": {}}, {"name": "O", "species": [{"element": "O", "occu": 1}], "xyz": [2.225503, -0.440325, 2.23057], "properties": {}}, {"name": "C", "species": [{"element": "C", "occu": 1}], "xyz": [2.445091, -0.15352, -0.107626], "properties": {}}, {"name": "C", "species": [{"element": "C", "occu": 1}], "xyz": [2.771111, 0.454219, 1.250301], "properties": {}}, {"name": "C", "species": [{"element": "C", "occu": 1}], "xyz": [0.999178, -0.560407, -0.374846], "properties": {}}, {"name": "C", "species": [{"element": "C", "occu": 1}], "xyz": [2.304266, -0.062725, 3.529307], "properties": {}}, {"name": "C", "species": [{"element": "C", "occu": 1}], "xyz": [1.615839, -1.073787, 4.434122], "properties": {}}, {"name": "C", "species": [{"element": "C", "occu": 1}], "xyz": [-0.034439, 0.549042, -0.311611], "properties": {}}, {"name": "C", "species": [{"element": "C", "occu": 1}], "xyz": [0.160966, -1.365741, 4.100537], "properties": {}}, {"name": "H", "species": [{"element": "H", "occu": 1}], "xyz": [3.857861, 0.524072, 1.349803], "properties": {}}, {"name": "H", "species": [{"element": "H", "occu": 1}], "xyz": [2.314031, 1.441837, 1.333832], "properties": {}}, {"name": "H", "species": [{"element": "H", "occu": 1}], "xyz": [0.95803, -1.000393, -1.374481], "properties": {}}, {"name": "H", "species": [{"element": "H", "occu": 1}], "xyz": [0.714834, -1.318196, 0.358527], "properties": {}}, {"name": "H", "species": [{"element": "H", "occu": 1}], "xyz": [2.167628, -2.014878, 4.383136], "properties": {}}, {"name": "H", "species": [{"element": "H", "occu": 1}], "xyz": [1.659369, -0.693481, 5.456883], "properties": {}}]}, "smiles": "FC(F)(COC(F)(F)CC(F)(F)F)CC(F)(F)F", "inchi": "InChI=1S/C7H6F10O/c8-4(9,1-5(10,11)12)3-18-7(16,17)2-6(13,14)15/h1-3H2", "formula_alphabetical": "C7 F10 H6 O1", "chemsys": "C-F-H-O", "energy": -1344.10152037, "esp": {"1": ["F", -0.224324], "2": ["F", -0.227512], "3": ["F", -0.24213], "4": ["F", -0.215865], "5": ["F", -0.192722], "6": ["F", -0.201729], "7": ["F", -0.215606], "8": ["F", -0.202874], "9": ["F", -0.227746], "10": ["F", -0.225361], "11": ["O", -0.270247], "12": ["C", 0.53268], "13": ["C", -0.209159], "14": ["C", -0.529543], "15": ["C", 0.649972], "16": ["C", -0.570345], "17": ["C", 0.658769], "18": ["C", 0.711259], "19": ["H", 0.17522], "20": ["H", 0.155092], "21": ["H", 0.220492], "22": ["H", 0.215096], "23": ["H", 0.215285], "24": ["H", 0.221298]}, "dipole_moment": {"X": 1.4516, "Y": -1.2422, "Z": 1.0972, "Tot": 2.2031}, "functional": "B3LYP", "basis": "6-31+G*", "phase": "gas", "tag": "lis", "state": "successful", "wall_time (s)": 21.169339251006022, "version": "0.0.1", "gauss_version": "ES64L-G16RevC.01", "last_updated": "2021-09-09 18:02:49.686000", "polarizability": 92.92, "fluorinated-solvent": "11702085", "run_ids": ["613a4975c589ba1157a28ad3", "613a4b632f6a104d91b46bca"]}