{"_id": "61412724575fc54b3caa0676", "molecule": {"@module": "pymatgen.core.structure", "@class": "Molecule", "charge": 0, "spin_multiplicity": 1, "sites": [{"name": "F", "species": [{"element": "F", "occu": 1}], "xyz": [1.576986, -1.988318, -3.585963], "properties": {}}, {"name": "F", "species": [{"element": "F", "occu": 1}], "xyz": [3.173741, -0.551204, -3.19941], "properties": {}}, {"name": "F", "species": [{"element": "F", "occu": 1}], "xyz": [3.126045, -1.596396, -5.731724], "properties": {}}, {"name": "F", "species": [{"element": "F", "occu": 1}], "xyz": [4.97265, -1.996254, -4.597645], "properties": {}}, {"name": "F", "species": [{"element": "F", "occu": 1}], "xyz": [4.086198, -4.00095, -6.305016], "properties": {}}, {"name": "F", "species": [{"element": "F", "occu": 1}], "xyz": [4.243589, -4.577773, -4.211393], "properties": {}}, {"name": "F", "species": [{"element": "F", "occu": 1}], "xyz": [2.280879, -4.225014, -5.100113], "properties": {}}, {"name": "O", "species": [{"element": "O", "occu": 1}], "xyz": [3.366951, -2.645056, -2.378895], "properties": {}}, {"name": "O", "species": [{"element": "O", "occu": 1}], "xyz": [1.426053, -3.234543, 1.382422], "properties": {}}, {"name": "C", "species": [{"element": "C", "occu": 1}], "xyz": [3.362299, -3.419512, -0.117561], "properties": {}}, {"name": "C", "species": [{"element": "C", "occu": 1}], "xyz": [2.824705, -2.352495, -1.054686], "properties": {}}, {"name": "C", "species": [{"element": "C", "occu": 1}], "xyz": [2.848123, -3.214181, 1.311995], "properties": {}}, {"name": "C", "species": [{"element": "C", "occu": 1}], "xyz": [2.932329, -1.888675, -3.39334], "properties": {}}, {"name": "C", "species": [{"element": "C", "occu": 1}], "xyz": [3.656881, -2.307506, -4.707043], "properties": {}}, {"name": "C", "species": [{"element": "C", "occu": 1}], "xyz": [0.838758, -4.533193, 1.512685], "properties": {}}, {"name": "C", "species": [{"element": "C", "occu": 1}], "xyz": [0.799178, -5.02088, 2.963478], "properties": {}}, {"name": "C", "species": [{"element": "C", "occu": 1}], "xyz": [3.561359, -3.818297, -5.080917], "properties": {}}, {"name": "C", "species": [{"element": "C", "occu": 1}], "xyz": [-0.009963, -4.096672, 3.879167], "properties": {}}, {"name": "H", "species": [{"element": "H", "occu": 1}], "xyz": [3.067287, -4.40702, -0.492126], "properties": {}}, {"name": "H", "species": [{"element": "H", "occu": 1}], "xyz": [4.459537, -3.389098, -0.115334], "properties": {}}, {"name": "H", "species": [{"element": "H", "occu": 1}], "xyz": [3.153971, -1.350253, -0.760989], "properties": {}}, {"name": "H", "species": [{"element": "H", "occu": 1}], "xyz": [1.73362, -2.377234, -1.10186], "properties": {}}, {"name": "H", "species": [{"element": "H", "occu": 1}], "xyz": [3.290538, -3.969576, 1.977359], "properties": {}}, {"name": "H", "species": [{"element": "H", "occu": 1}], "xyz": [3.152033, -2.229403, 1.687182], "properties": {}}, {"name": "H", "species": [{"element": "H", "occu": 1}], "xyz": [-0.180578, -4.429138, 1.122842], "properties": {}}, {"name": "H", "species": [{"element": "H", "occu": 1}], "xyz": [1.365826, -5.259444, 0.874689], "properties": {}}, {"name": "H", "species": [{"element": "H", "occu": 1}], "xyz": [0.369165, -6.032844, 2.966066], "properties": {}}, {"name": "H", "species": [{"element": "H", "occu": 1}], "xyz": [1.824686, -5.122628, 3.345027], "properties": {}}, {"name": "H", "species": [{"element": "H", "occu": 1}], "xyz": [-1.053342, -4.028909, 3.544782], "properties": {}}, {"name": "H", "species": [{"element": "H", "occu": 1}], "xyz": [-0.01075, -4.463174, 4.912271], "properties": {}}, {"name": "H", "species": [{"element": "H", "occu": 1}], "xyz": [0.407207, -3.084093, 3.873859], "properties": {}}]}, "smiles": "FC(F)(OCCCOCCC)C(F)(F)C(F)(F)F", "inchi": "InChI=1S/C9H13F7O2/c1-2-4-17-5-3-6-18-9(15,16)7(10,11)8(12,13)14/h2-6H2,1H3", "formula_alphabetical": "C9 F7 H13 O2", "chemsys": "C-F-H-O", "energy": -1200.16833174, "esp": {"1": ["F", -0.184278], "2": ["F", -0.170009], "3": ["F", -0.138001], "4": ["F", -0.133381], "5": ["F", -0.152679], "6": ["F", -0.167456], "7": ["F", -0.151801], "8": ["O", -0.363491], "9": ["O", -0.508846], "10": ["C", -0.231767], "11": ["C", 0.308885], "12": ["C", 0.209901], "13": ["C", 0.392199], "14": ["C", 0.218818], "15": ["C", 0.292835], "16": ["C", 0.050833], "17": ["C", 0.485336], "18": ["C", -0.146066], "19": ["H", 0.112323], "20": ["H", 0.064637], "21": ["H", 0.029834], "22": ["H", 0.039626], "23": ["H", 0.018039], "24": ["H", 0.04279], "25": ["H", 0.023465], "26": ["H", -0.045525], "27": ["H", -0.024261], "28": ["H", 0.012472], "29": ["H", 0.035303], "30": ["H", 0.036377], "31": ["H", 0.043889]}, "dipole_moment": {"X": 0.1271, "Y": -1.7411, "Z": 3.7693, "Tot": 4.1539}, "functional": "B3LYP", "basis": "6-31+G*", "phase": "gas", "tag": "lis", "state": "successful", "wall_time (s)": 21.654290686012246, "version": "0.0.1", "gauss_version": "ES64L-G16RevC.01", "last_updated": "2021-09-14 22:50:12.257000", "polarizability": 121.12, "fluorinated-solvent": "152324003", "run_ids": ["61412704a7f28b65a32e9c3b", "61412720fe00f7333cf0b49e"]}