{"_id": "613a5443ac9210d072fe8418", "molecule": {"@module": "pymatgen.core.structure", "@class": "Molecule", "charge": 0, "spin_multiplicity": 1, "sites": [{"name": "F", "species": [{"element": "F", "occu": 1}], "xyz": [1.289583, -2.901777, -3.589897], "properties": {}}, {"name": "F", "species": [{"element": "F", "occu": 1}], "xyz": [3.235177, -2.006562, -4.14896], "properties": {}}, {"name": "F", "species": [{"element": "F", "occu": 1}], "xyz": [3.274459, -4.73301, -4.045156], "properties": {}}, {"name": "F", "species": [{"element": "F", "occu": 1}], "xyz": [4.504952, -3.817373, -2.448251], "properties": {}}, {"name": "O", "species": [{"element": "O", "occu": 1}], "xyz": [1.949348, -2.383397, -0.803427], "properties": {}}, {"name": "C", "species": [{"element": "C", "occu": 1}], "xyz": [0.107327, -2.86247, 0.654768], "properties": {}}, {"name": "C", "species": [{"element": "C", "occu": 1}], "xyz": [0.527204, -2.224504, -0.663458], "properties": {}}, {"name": "C", "species": [{"element": "C", "occu": 1}], "xyz": [0.787352, -2.271151, 1.900761], "properties": {}}, {"name": "C", "species": [{"element": "C", "occu": 1}], "xyz": [2.533253, -1.742848, -1.914743], "properties": {}}, {"name": "C", "species": [{"element": "C", "occu": 1}], "xyz": [2.569123, -2.651025, -3.141935], "properties": {}}, {"name": "C", "species": [{"element": "C", "occu": 1}], "xyz": [3.222554, -4.019034, -2.885767], "properties": {}}, {"name": "C", "species": [{"element": "C", "occu": 1}], "xyz": [0.483321, -0.785827, 2.134653], "properties": {}}, {"name": "H", "species": [{"element": "H", "occu": 1}], "xyz": [-0.98418, -2.756302, 0.738407], "properties": {}}, {"name": "H", "species": [{"element": "H", "occu": 1}], "xyz": [0.316527, -3.939191, 0.599812], "properties": {}}, {"name": "H", "species": [{"element": "H", "occu": 1}], "xyz": [0.285101, -1.150968, -0.682173], "properties": {}}, {"name": "H", "species": [{"element": "H", "occu": 1}], "xyz": [0.00738, -2.701396, -1.50416], "properties": {}}, {"name": "H", "species": [{"element": "H", "occu": 1}], "xyz": [0.459876, -2.848894, 2.775528], "properties": {}}, {"name": "H", "species": [{"element": "H", "occu": 1}], "xyz": [1.871069, -2.416607, 1.817099], "properties": {}}, {"name": "H", "species": [{"element": "H", "occu": 1}], "xyz": [3.565785, -1.49364, -1.653118], "properties": {}}, {"name": "H", "species": [{"element": "H", "occu": 1}], "xyz": [2.004184, -0.82162, -2.197883], "properties": {}}, {"name": "H", "species": [{"element": "H", "occu": 1}], "xyz": [2.676018, -4.589873, -2.131982], "properties": {}}, {"name": "H", "species": [{"element": "H", "occu": 1}], "xyz": [-0.598609, -0.603836, 2.185528], "properties": {}}, {"name": "H", "species": [{"element": "H", "occu": 1}], "xyz": [0.924252, -0.439606, 3.076809], "properties": {}}, {"name": "H", "species": [{"element": "H", "occu": 1}], "xyz": [0.891134, -0.156287, 1.334648], "properties": {}}]}, "smiles": "FC(F)(COCCCC)C(F)F", "inchi": "InChI=1S/C7H12F4O/c1-2-3-4-12-5-7(10,11)6(8)9/h6H,2-5H2,1H3", "formula_alphabetical": "C7 F4 H12 O1", "chemsys": "C-F-H-O", "energy": -748.587574549, "esp": {"1": ["F", -0.19715], "2": ["F", -0.183078], "3": ["F", -0.215874], "4": ["F", -0.227323], "5": ["O", -0.335691], "6": ["C", -0.328614], "7": ["C", 0.278189], "8": ["C", 0.314528], "9": ["C", -0.103134], "10": ["C", 0.270118], "11": ["C", 0.405319], "12": ["C", -0.276114], "13": ["H", 0.081161], "14": ["H", 0.079973], "15": ["H", -0.004963], "16": ["H", 0.012498], "17": ["H", -0.038055], "18": ["H", -0.062892], "19": ["H", 0.134397], "20": ["H", 0.127806], "21": ["H", 0.082242], "22": ["H", 0.05478], "23": ["H", 0.055435], "24": ["H", 0.076442]}, "dipole_moment": {"X": -1.9582, "Y": 1.0589, "Z": 2.5916, "Tot": 3.4164}, "functional": "B3LYP", "basis": "6-31+G*", "phase": "gas", "tag": "lis", "state": "successful", "wall_time (s)": 11.71420201798901, "version": "0.0.1", "gauss_version": "ES64L-G16RevC.01", "last_updated": "2021-09-09 18:36:51.647000", "polarizability": 90.1, "fluorinated-solvent": "12100157", "run_ids": ["613a4ad0123ff93338fc7512", "613a543e2aa3b3f51c9aef91"]}