{"_id": "6141298798d3583c310e8e24", "molecule": {"@module": "pymatgen.core.structure", "@class": "Molecule", "charge": 0, "spin_multiplicity": 1, "sites": [{"name": "F", "species": [{"element": "F", "occu": 1}], "xyz": [4.625378, 0.844175, -0.396674], "properties": {}}, {"name": "F", "species": [{"element": "F", "occu": 1}], "xyz": [4.698047, -1.365373, -0.42866], "properties": {}}, {"name": "F", "species": [{"element": "F", "occu": 1}], "xyz": [0.162661, 0.792342, -1.177498], "properties": {}}, {"name": "F", "species": [{"element": "F", "occu": 1}], "xyz": [6.294753, -0.274466, -2.309105], "properties": {}}, {"name": "F", "species": [{"element": "F", "occu": 1}], "xyz": [4.534568, -1.236482, -3.247255], "properties": {}}, {"name": "O", "species": [{"element": "O", "occu": 1}], "xyz": [2.284726, 0.721116, -2.005415], "properties": {}}, {"name": "C", "species": [{"element": "C", "occu": 1}], "xyz": [2.731505, -0.353003, -1.186543], "properties": {}}, {"name": "C", "species": [{"element": "C", "occu": 1}], "xyz": [4.247047, -0.265945, -1.10698], "properties": {}}, {"name": "C", "species": [{"element": "C", "occu": 1}], "xyz": [0.939735, 0.671997, -2.350138], "properties": {}}, {"name": "C", "species": [{"element": "C", "occu": 1}], "xyz": [0.6219, 1.817854, -3.287003], "properties": {}}, {"name": "C", "species": [{"element": "C", "occu": 1}], "xyz": [4.947431, -0.180475, -2.474908], "properties": {}}, {"name": "C", "species": [{"element": "C", "occu": 1}], "xyz": [-0.849099, 1.836851, -3.714297], "properties": {}}, {"name": "H", "species": [{"element": "H", "occu": 1}], "xyz": [2.460582, -1.323372, -1.622323], "properties": {}}, {"name": "H", "species": [{"element": "H", "occu": 1}], "xyz": [2.327637, -0.278355, -0.171455], "properties": {}}, {"name": "H", "species": [{"element": "H", "occu": 1}], "xyz": [0.675307, -0.313138, -2.763704], "properties": {}}, {"name": "H", "species": [{"element": "H", "occu": 1}], "xyz": [0.895048, 2.747519, -2.774029], "properties": {}}, {"name": "H", "species": [{"element": "H", "occu": 1}], "xyz": [1.279145, 1.719347, -4.159769], "properties": {}}, {"name": "H", "species": [{"element": "H", "occu": 1}], "xyz": [4.708628, 0.751933, -2.990174], "properties": {}}, {"name": "H", "species": [{"element": "H", "occu": 1}], "xyz": [-1.50805, 1.948368, -2.847408], "properties": {}}, {"name": "H", "species": [{"element": "H", "occu": 1}], "xyz": [-1.037724, 2.672305, -4.39668], "properties": {}}, {"name": "H", "species": [{"element": "H", "occu": 1}], "xyz": [-1.125794, 0.911273, -4.234713], "properties": {}}]}, "smiles": "FC(F)(CO[C@@H](F)CC)C(F)F", "inchi": "InChI=1S/C6H9F5O/c1-2-4(7)12-3-6(10,11)5(8)9/h4-5H,2-3H2,1H3/t4-/m1/s1", "formula_alphabetical": "C6 F5 H9 O1", "chemsys": "C-F-H-O", "energy": -808.529502762, "esp": {"1": ["F", -0.212533], "2": ["F", -0.218892], "3": ["F", -0.293018], "4": ["F", -0.20882], "5": ["F", -0.219852], "6": ["O", -0.436182], "7": ["C", 0.004339], "8": ["C", 0.3955], "9": ["C", 0.441593], "10": ["C", -0.003802], "11": ["C", 0.361507], "12": ["C", -0.207613], "13": ["H", 0.072627], "14": ["H", 0.136171], "15": ["H", 0.038335], "16": ["H", 0.060895], "17": ["H", 0.025761], "18": ["H", 0.080297], "19": ["H", 0.064787], "20": ["H", 0.071542], "21": ["H", 0.047358]}, "dipole_moment": {"X": -2.5292, "Y": 0.6125, "Z": -2.2412, "Tot": 3.4344}, "functional": "B3LYP", "basis": "6-31+G*", "phase": "gas", "tag": "lis", "state": "successful", "wall_time (s)": 10.32398537301924, "version": "0.0.1", "gauss_version": "ES64L-G16RevC.01", "last_updated": "2021-09-14 23:00:23.218000", "polarizability": 79.57, "fluorinated-solvent": "141107231", "run_ids": ["6141296b20c56f60b70c031b", "61412982878df90382779d27"]}