{"_id": "61412be5996651f2641e7eaa", "molecule": {"@module": "pymatgen.core.structure", "@class": "Molecule", "charge": 0, "spin_multiplicity": 1, "sites": [{"name": "F", "species": [{"element": "F", "occu": 1}], "xyz": [1.064993, -0.06863, -0.03045], "properties": {}}, {"name": "F", "species": [{"element": "F", "occu": 1}], "xyz": [2.81759, -0.721133, -1.213275], "properties": {}}, {"name": "F", "species": [{"element": "F", "occu": 1}], "xyz": [3.90459, 4.019027, 0.350112], "properties": {}}, {"name": "O", "species": [{"element": "O", "occu": 1}], "xyz": [2.549522, 2.222934, 0.788338], "properties": {}}, {"name": "C", "species": [{"element": "C", "occu": 1}], "xyz": [2.445112, 0.003469, -0.08921], "properties": {}}, {"name": "C", "species": [{"element": "C", "occu": 1}], "xyz": [2.846154, 1.445798, -0.369525], "properties": {}}, {"name": "C", "species": [{"element": "C", "occu": 1}], "xyz": [3.031801, -0.634675, 1.145819], "properties": {}}, {"name": "C", "species": [{"element": "C", "occu": 1}], "xyz": [2.590121, 3.585473, 0.596766], "properties": {}}, {"name": "H", "species": [{"element": "H", "occu": 1}], "xyz": [3.917027, 1.484229, -0.59672], "properties": {}}, {"name": "H", "species": [{"element": "H", "occu": 1}], "xyz": [2.27636, 1.799674, -1.239487], "properties": {}}, {"name": "H", "species": [{"element": "H", "occu": 1}], "xyz": [2.72306, -0.071692, 2.029592], "properties": {}}, {"name": "H", "species": [{"element": "H", "occu": 1}], "xyz": [2.672577, -1.664734, 1.218605], "properties": {}}, {"name": "H", "species": [{"element": "H", "occu": 1}], "xyz": [4.123777, -0.633673, 1.081761], "properties": {}}, {"name": "H", "species": [{"element": "H", "occu": 1}], "xyz": [1.999198, 3.903349, -0.273406], "properties": {}}, {"name": "H", "species": [{"element": "H", "occu": 1}], "xyz": [2.255379, 4.055084, 1.523307], "properties": {}}]}, "smiles": "FC(F)(COCF)C", "inchi": "InChI=1S/C4H7F3O/c1-4(6,7)2-8-3-5/h2-3H2,1H3", "formula_alphabetical": "C4 F3 H7 O1", "chemsys": "C-F-H-O", "energy": -531.415959993, "esp": {"1": ["F", -0.264524], "2": ["F", -0.290412], "3": ["F", -0.262994], "4": ["O", -0.31747], "5": ["C", 0.575388], "6": ["C", -0.066618], "7": ["C", -0.405009], "8": ["C", 0.229306], "9": ["H", 0.118021], "10": ["H", 0.114272], "11": ["H", 0.12278], "12": ["H", 0.146004], "13": ["H", 0.132919], "14": ["H", 0.069266], "15": ["H", 0.09907]}, "dipole_moment": {"X": -0.0065, "Y": 0.7436, "Z": 0.7703, "Tot": 1.0707}, "functional": "B3LYP", "basis": "6-31+G*", "phase": "gas", "tag": "lis", "state": "successful", "wall_time (s)": 5.819687466020696, "version": "0.0.1", "gauss_version": "ES64L-G16RevC.01", "last_updated": "2021-09-14 23:10:29.227000", "polarizability": 54.9, "fluorinated-solvent": "58805545", "run_ids": ["61412bc5f18794b42421a9fe", "61412bd6e3da82f307d4ff9d"]}