{"_id": "613a4cfafb258a1f3be3a125", "molecule": {"@module": "pymatgen.core.structure", "@class": "Molecule", "charge": 0, "spin_multiplicity": 1, "sites": [{"name": "F", "species": [{"element": "F", "occu": 1}], "xyz": [1.290402, -0.098622, 0.417176], "properties": {}}, {"name": "F", "species": [{"element": "F", "occu": 1}], "xyz": [2.894383, -1.261949, -0.517285], "properties": {}}, {"name": "F", "species": [{"element": "F", "occu": 1}], "xyz": [3.860881, 0.993754, 3.549075], "properties": {}}, {"name": "O", "species": [{"element": "O", "occu": 1}], "xyz": [3.013512, 0.993169, -0.550474], "properties": {}}, {"name": "C", "species": [{"element": "C", "occu": 1}], "xyz": [2.664215, -0.088462, 0.183973], "properties": {}}, {"name": "C", "species": [{"element": "C", "occu": 1}], "xyz": [3.410293, -0.124113, 1.502183], "properties": {}}, {"name": "C", "species": [{"element": "C", "occu": 1}], "xyz": [2.397335, 1.135489, -1.859836], "properties": {}}, {"name": "C", "species": [{"element": "C", "occu": 1}], "xyz": [2.803649, 2.494591, -2.408114], "properties": {}}, {"name": "C", "species": [{"element": "C", "occu": 1}], "xyz": [3.166761, 1.1288, 2.333677], "properties": {}}, {"name": "C", "species": [{"element": "C", "occu": 1}], "xyz": [2.272829, 3.66806, -1.577111], "properties": {}}, {"name": "H", "species": [{"element": "H", "occu": 1}], "xyz": [3.078064, -1.009476, 2.051733], "properties": {}}, {"name": "H", "species": [{"element": "H", "occu": 1}], "xyz": [4.477364, -0.229332, 1.285499], "properties": {}}, {"name": "H", "species": [{"element": "H", "occu": 1}], "xyz": [2.750187, 0.319379, -2.498682], "properties": {}}, {"name": "H", "species": [{"element": "H", "occu": 1}], "xyz": [1.310022, 1.059592, -1.747665], "properties": {}}, {"name": "H", "species": [{"element": "H", "occu": 1}], "xyz": [3.898824, 2.536647, -2.470477], "properties": {}}, {"name": "H", "species": [{"element": "H", "occu": 1}], "xyz": [2.424924, 2.557693, -3.437372], "properties": {}}, {"name": "H", "species": [{"element": "H", "occu": 1}], "xyz": [3.545313, 2.025495, 1.835448], "properties": {}}, {"name": "H", "species": [{"element": "H", "occu": 1}], "xyz": [2.106713, 1.257306, 2.57276], "properties": {}}, {"name": "H", "species": [{"element": "H", "occu": 1}], "xyz": [2.659529, 3.628957, -0.55335], "properties": {}}, {"name": "H", "species": [{"element": "H", "occu": 1}], "xyz": [2.571722, 4.626513, -2.016325], "properties": {}}, {"name": "H", "species": [{"element": "H", "occu": 1}], "xyz": [1.176747, 3.648646, -1.523714], "properties": {}}]}, "smiles": "FC(F)(OCCC)CCF", "inchi": "InChI=1S/C6H11F3O/c1-2-5-10-6(8,9)3-4-7/h2-5H2,1H3", "formula_alphabetical": "C6 F3 H11 O1", "chemsys": "C-F-H-O", "energy": -610.053159826, "esp": {"1": ["F", -0.232594], "2": ["F", -0.227307], "3": ["F", -0.315364], "4": ["O", -0.298449], "5": ["C", 0.461552], "6": ["C", -0.26535], "7": ["C", -0.000816], "8": ["C", 0.110359], "9": ["C", 0.30996], "10": ["C", -0.207487], "11": ["H", 0.137012], "12": ["H", 0.121887], "13": ["H", 0.075], "14": ["H", 0.091291], "15": ["H", 0.014677], "16": ["H", -9e-06], "17": ["H", 0.033961], "18": ["H", 0.03161], "19": ["H", 0.047101], "20": ["H", 0.058315], "21": ["H", 0.05465]}, "dipole_moment": {"X": -0.2556, "Y": 1.4159, "Z": -2.3524, "Tot": 2.7575}, "functional": "B3LYP", "basis": "6-31+G*", "phase": "gas", "tag": "lis", "state": "successful", "wall_time (s)": 8.939644522964954, "version": "0.0.1", "gauss_version": "ES64L-G16RevC.01", "last_updated": "2021-09-09 18:05:46.036000", "polarizability": 77.32, "fluorinated-solvent": "20725473", "run_ids": ["613a49d132c667d114759660", "613a4b7fb1528c4db379a370"]}