{"_id": "613a50c3b24540d8fdf77031", "molecule": {"@module": "pymatgen.core.structure", "@class": "Molecule", "charge": 0, "spin_multiplicity": 1, "sites": [{"name": "F", "species": [{"element": "F", "occu": 1}], "xyz": [1.113381, 0.51712, -0.627661], "properties": {}}, {"name": "F", "species": [{"element": "F", "occu": 1}], "xyz": [3.221071, 0.989131, -0.954495], "properties": {}}, {"name": "F", "species": [{"element": "F", "occu": 1}], "xyz": [1.732309, -2.046823, 0.153108], "properties": {}}, {"name": "F", "species": [{"element": "F", "occu": 1}], "xyz": [2.413651, 0.942576, 3.797931], "properties": {}}, {"name": "F", "species": [{"element": "F", "occu": 1}], "xyz": [4.17562, 1.836504, 2.820723], "properties": {}}, {"name": "F", "species": [{"element": "F", "occu": 1}], "xyz": [2.887693, -3.029131, -2.047362], "properties": {}}, {"name": "F", "species": [{"element": "F", "occu": 1}], "xyz": [1.590071, -1.372539, -2.614124], "properties": {}}, {"name": "F", "species": [{"element": "F", "occu": 1}], "xyz": [3.758544, -1.105298, -2.592663], "properties": {}}, {"name": "F", "species": [{"element": "F", "occu": 1}], "xyz": [3.075938, 3.420912, 4.762572], "properties": {}}, {"name": "F", "species": [{"element": "F", "occu": 1}], "xyz": [2.887769, 4.283895, 2.764699], "properties": {}}, {"name": "F", "species": [{"element": "F", "occu": 1}], "xyz": [1.145873, 3.396884, 3.740352], "properties": {}}, {"name": "O", "species": [{"element": "O", "occu": 1}], "xyz": [2.532748, 0.42585, 1.113787], "properties": {}}, {"name": "C", "species": [{"element": "C", "occu": 1}], "xyz": [2.376499, 0.197361, -0.214033], "properties": {}}, {"name": "C", "species": [{"element": "C", "occu": 1}], "xyz": [2.692128, -1.286481, -0.478848], "properties": {}}, {"name": "C", "species": [{"element": "C", "occu": 1}], "xyz": [2.160268, 1.730456, 1.571602], "properties": {}}, {"name": "C", "species": [{"element": "C", "occu": 1}], "xyz": [2.819631, 1.912172, 2.932235], "properties": {}}, {"name": "C", "species": [{"element": "C", "occu": 1}], "xyz": [2.720473, -1.693642, -1.96409], "properties": {}}, {"name": "C", "species": [{"element": "C", "occu": 1}], "xyz": [2.47957, 3.284776, 3.574225], "properties": {}}, {"name": "H", "species": [{"element": "H", "occu": 1}], "xyz": [3.672547, -1.511366, -0.049241], "properties": {}}, {"name": "H", "species": [{"element": "H", "occu": 1}], "xyz": [2.525729, 2.50506, 0.892068], "properties": {}}, {"name": "H", "species": [{"element": "H", "occu": 1}], "xyz": [1.074367, 1.79922, 1.676107], "properties": {}}]}, "smiles": "FC(F)(OCC(F)(F)C(F)(F)F)[C@@H](F)C(F)(F)F", "inchi": "InChI=1S/C6H3F11O/c7-2(4(10,11)12)5(13,14)18-1-3(8,9)6(15,16)17/h2H,1H2/t2-/m0/s1", "formula_alphabetical": "C6 F11 H3 O1", "chemsys": "C-F-H-O", "energy": -1403.99342318, "esp": {"1": ["F", -0.168831], "2": ["F", -0.184095], "3": ["F", -0.141627], "4": ["F", -0.153736], "5": ["F", -0.160065], "6": ["F", -0.178956], "7": ["F", -0.163035], "8": ["F", -0.193517], "9": ["F", -0.143536], "10": ["F", -0.173485], "11": ["F", -0.177882], "12": ["O", -0.209414], "13": ["C", 0.449837], "14": ["C", -0.151247], "15": ["C", -0.075013], "16": ["C", 0.244882], "17": ["C", 0.590669], "18": ["C", 0.510894], "19": ["H", 0.197998], "20": ["H", 0.133029], "21": ["H", 0.14713]}, "dipole_moment": {"X": 0.2008, "Y": 1.1219, "Z": 0.2704, "Tot": 1.1713}, "functional": "B3LYP", "basis": "6-31+G*", "phase": "gas", "tag": "lis", "state": "successful", "wall_time (s)": 39.94593492895365, "version": "0.0.1", "gauss_version": "ES64L-G16RevC.01", "last_updated": "2021-09-09 18:21:55.369000", "polarizability": 84.36, "fluorinated-solvent": "2778519", "run_ids": ["613a4a9550c059c66c69e056", "613a50b55944bc471be142ab"]}