{"_id": "61412614bca250cdccd7b4fb", "molecule": {"@module": "pymatgen.core.structure", "@class": "Molecule", "charge": 0, "spin_multiplicity": 1, "sites": [{"name": "F", "species": [{"element": "F", "occu": 1}], "xyz": [0.705378, 1.570284, 1.281454], "properties": {}}, {"name": "F", "species": [{"element": "F", "occu": 1}], "xyz": [2.218075, 2.825829, 2.217914], "properties": {}}, {"name": "F", "species": [{"element": "F", "occu": 1}], "xyz": [2.217351, 0.670552, 2.576666], "properties": {}}, {"name": "F", "species": [{"element": "F", "occu": 1}], "xyz": [4.902003, 2.326505, 1.395591], "properties": {}}, {"name": "O", "species": [{"element": "O", "occu": 1}], "xyz": [2.709992, 2.445973, -0.470544], "properties": {}}, {"name": "C", "species": [{"element": "C", "occu": 1}], "xyz": [2.910652, 1.3793, 0.421415], "properties": {}}, {"name": "C", "species": [{"element": "C", "occu": 1}], "xyz": [2.748032, 2.093095, -1.857828], "properties": {}}, {"name": "C", "species": [{"element": "C", "occu": 1}], "xyz": [2.636695, 3.372773, -2.674447], "properties": {}}, {"name": "C", "species": [{"element": "C", "occu": 1}], "xyz": [2.010884, 1.634618, 1.637389], "properties": {}}, {"name": "C", "species": [{"element": "C", "occu": 1}], "xyz": [4.381013, 1.184842, 0.788655], "properties": {}}, {"name": "C", "species": [{"element": "C", "occu": 1}], "xyz": [3.820744, 4.322743, -2.461801], "properties": {}}, {"name": "H", "species": [{"element": "H", "occu": 1}], "xyz": [2.552489, 0.425322, -0.000509], "properties": {}}, {"name": "H", "species": [{"element": "H", "occu": 1}], "xyz": [3.69277, 1.57458, -2.090217], "properties": {}}, {"name": "H", "species": [{"element": "H", "occu": 1}], "xyz": [1.915497, 1.406675, -2.079605], "properties": {}}, {"name": "H", "species": [{"element": "H", "occu": 1}], "xyz": [2.559099, 3.088674, -3.732946], "properties": {}}, {"name": "H", "species": [{"element": "H", "occu": 1}], "xyz": [1.696504, 3.871745, -2.406898], "properties": {}}, {"name": "H", "species": [{"element": "H", "occu": 1}], "xyz": [4.502951, 0.344781, 1.480189], "properties": {}}, {"name": "H", "species": [{"element": "H", "occu": 1}], "xyz": [4.958057, 1.000798, -0.123879], "properties": {}}, {"name": "H", "species": [{"element": "H", "occu": 1}], "xyz": [4.765552, 3.845034, -2.753282], "properties": {}}, {"name": "H", "species": [{"element": "H", "occu": 1}], "xyz": [3.706127, 5.232145, -3.062614], "properties": {}}, {"name": "H", "species": [{"element": "H", "occu": 1}], "xyz": [3.900694, 4.613403, -1.409673], "properties": {}}]}, "smiles": "FC(F)(F)[C@@H](OCCC)CF", "inchi": "InChI=1S/C6H10F4O/c1-2-3-11-5(4-7)6(8,9)10/h5H,2-4H2,1H3/t5-/m0/s1", "formula_alphabetical": "C6 F4 H10 O1", "chemsys": "C-F-H-O", "energy": -709.277146715, "esp": {"1": ["F", -0.200207], "2": ["F", -0.171382], "3": ["F", -0.207524], "4": ["F", -0.236045], "5": ["O", -0.348741], "6": ["C", 0.106133], "7": ["C", 0.091701], "8": ["C", 0.095086], "9": ["C", 0.534867], "10": ["C", 0.09575], "11": ["C", -0.122017], "12": ["H", 0.048727], "13": ["H", 0.030259], "14": ["H", 0.032144], "15": ["H", -0.016348], "16": ["H", 0.013945], "17": ["H", 0.063329], "18": ["H", 0.08401], "19": ["H", 0.033728], "20": ["H", 0.028569], "21": ["H", 0.044015]}, "dipole_moment": {"X": 0.7861, "Y": -2.4349, "Z": -3.4594, "Tot": 4.3028}, "functional": "B3LYP", "basis": "6-31+G*", "phase": "gas", "tag": "lis", "state": "successful", "wall_time (s)": 10.032455714070238, "version": "0.0.1", "gauss_version": "ES64L-G16RevC.01", "last_updated": "2021-09-14 22:45:40.194000", "polarizability": 78.93, "fluorinated-solvent": "57052071", "run_ids": ["614125ffe70f4dfa94b60d14", "6141260f7bea0b6fa0d18f37"]}