{"_id": "613a4de5cec26d40f285f39d", "molecule": {"@module": "pymatgen.core.structure", "@class": "Molecule", "charge": 0, "spin_multiplicity": 1, "sites": [{"name": "F", "species": [{"element": "F", "occu": 1}], "xyz": [1.030078, -2.30408, 1.334955], "properties": {}}, {"name": "F", "species": [{"element": "F", "occu": 1}], "xyz": [3.08545, -2.882721, 1.776593], "properties": {}}, {"name": "F", "species": [{"element": "F", "occu": 1}], "xyz": [2.472472, -2.530388, -0.29164], "properties": {}}, {"name": "O", "species": [{"element": "O", "occu": 1}], "xyz": [2.5514, -0.198995, 2.394864], "properties": {}}, {"name": "C", "species": [{"element": "C", "occu": 1}], "xyz": [2.713692, -0.632693, 1.07193], "properties": {}}, {"name": "C", "species": [{"element": "C", "occu": 1}], "xyz": [2.896249, 1.174066, 2.585327], "properties": {}}, {"name": "C", "species": [{"element": "C", "occu": 1}], "xyz": [2.318902, -2.098211, 0.989245], "properties": {}}, {"name": "C", "species": [{"element": "C", "occu": 1}], "xyz": [2.677879, 1.515714, 4.048621], "properties": {}}, {"name": "H", "species": [{"element": "H", "occu": 1}], "xyz": [3.758237, -0.553188, 0.732521], "properties": {}}, {"name": "H", "species": [{"element": "H", "occu": 1}], "xyz": [2.07141, -0.078363, 0.369953], "properties": {}}, {"name": "H", "species": [{"element": "H", "occu": 1}], "xyz": [3.948249, 1.33339, 2.295914], "properties": {}}, {"name": "H", "species": [{"element": "H", "occu": 1}], "xyz": [2.268247, 1.805384, 1.935018], "properties": {}}, {"name": "H", "species": [{"element": "H", "occu": 1}], "xyz": [3.305825, 0.885194, 4.686703], "properties": {}}, {"name": "H", "species": [{"element": "H", "occu": 1}], "xyz": [2.933178, 2.565619, 4.233251], "properties": {}}, {"name": "H", "species": [{"element": "H", "occu": 1}], "xyz": [1.630981, 1.355734, 4.326895], "properties": {}}]}, "smiles": "FC(F)(F)COCC", "inchi": "InChI=1S/C4H7F3O/c1-2-8-3-4(5,6)7/h2-3H2,1H3", "formula_alphabetical": "C4 F3 H7 O1", "chemsys": "C-F-H-O", "energy": -531.414622242, "esp": {"1": ["F", -0.203041], "2": ["F", -0.203809], "3": ["F", -0.240205], "4": ["O", -0.36853], "5": ["C", -0.199075], "6": ["C", 0.383261], "7": ["C", 0.660767], "8": ["C", -0.337986], "9": ["H", 0.130052], "10": ["H", 0.129857], "11": ["H", -0.015548], "12": ["H", -0.017709], "13": ["H", 0.101871], "14": ["H", 0.077222], "15": ["H", 0.102873]}, "dipole_moment": {"X": 1.0033, "Y": 3.3564, "Z": -0.2757, "Tot": 3.514}, "functional": "B3LYP", "basis": "6-31+G*", "phase": "gas", "tag": "lis", "state": "successful", "wall_time (s)": 5.908691970049404, "version": "0.0.1", "gauss_version": "ES64L-G16RevC.01", "last_updated": "2021-09-09 18:09:40.814000", "polarizability": 55.76, "fluorinated-solvent": "10003", "run_ids": ["613a4a16f622666ca956122a", "613a4ddbbc83a91fd43440c8"]}