{"_id": "614126c2c162a65e4ff26a77", "molecule": {"@module": "pymatgen.core.structure", "@class": "Molecule", "charge": 0, "spin_multiplicity": 1, "sites": [{"name": "F", "species": [{"element": "F", "occu": 1}], "xyz": [2.518209, 2.547553, 1.70165], "properties": {}}, {"name": "F", "species": [{"element": "F", "occu": 1}], "xyz": [0.624525, 1.506272, 1.348494], "properties": {}}, {"name": "F", "species": [{"element": "F", "occu": 1}], "xyz": [3.751569, 0.095805, 2.254656], "properties": {}}, {"name": "F", "species": [{"element": "F", "occu": 1}], "xyz": [1.980982, 0.53839, 3.50083], "properties": {}}, {"name": "O", "species": [{"element": "O", "occu": 1}], "xyz": [2.398177, 1.026783, 0.036258], "properties": {}}, {"name": "C", "species": [{"element": "C", "occu": 1}], "xyz": [2.718887, 1.452191, -2.332665], "properties": {}}, {"name": "C", "species": [{"element": "C", "occu": 1}], "xyz": [2.110315, 1.978668, -1.028262], "properties": {}}, {"name": "C", "species": [{"element": "C", "occu": 1}], "xyz": [2.100008, 0.08875, -2.692125], "properties": {}}, {"name": "C", "species": [{"element": "C", "occu": 1}], "xyz": [2.387009, 2.481257, -3.430866], "properties": {}}, {"name": "C", "species": [{"element": "C", "occu": 1}], "xyz": [4.245861, 1.319295, -2.184804], "properties": {}}, {"name": "C", "species": [{"element": "C", "occu": 1}], "xyz": [1.995588, 1.354169, 1.274328], "properties": {}}, {"name": "C", "species": [{"element": "C", "occu": 1}], "xyz": [2.394405, 0.223046, 2.242481], "properties": {}}, {"name": "H", "species": [{"element": "H", "occu": 1}], "xyz": [1.022728, 2.081088, -1.112174], "properties": {}}, {"name": "H", "species": [{"element": "H", "occu": 1}], "xyz": [2.545912, 2.945212, -0.754166], "properties": {}}, {"name": "H", "species": [{"element": "H", "occu": 1}], "xyz": [1.010036, 0.16382, -2.797964], "properties": {}}, {"name": "H", "species": [{"element": "H", "occu": 1}], "xyz": [2.506461, -0.275036, -3.643373], "properties": {}}, {"name": "H", "species": [{"element": "H", "occu": 1}], "xyz": [2.316613, -0.65854, -1.921789], "properties": {}}, {"name": "H", "species": [{"element": "H", "occu": 1}], "xyz": [2.812459, 3.466424, -3.201099], "properties": {}}, {"name": "H", "species": [{"element": "H", "occu": 1}], "xyz": [2.802844, 2.154561, -4.391134], "properties": {}}, {"name": "H", "species": [{"element": "H", "occu": 1}], "xyz": [1.303375, 2.598831, -3.55909], "properties": {}}, {"name": "H", "species": [{"element": "H", "occu": 1}], "xyz": [4.704305, 2.284705, -1.935253], "properties": {}}, {"name": "H", "species": [{"element": "H", "occu": 1}], "xyz": [4.50596, 0.607129, -1.395132], "properties": {}}, {"name": "H", "species": [{"element": "H", "occu": 1}], "xyz": [4.690097, 0.967906, -3.123798], "properties": {}}, {"name": "H", "species": [{"element": "H", "occu": 1}], "xyz": [1.945485, -0.727353, 1.941218], "properties": {}}]}, "smiles": "FC(F)(OCC(C)(C)C)C(F)F", "inchi": "InChI=1S/C7H12F4O/c1-6(2,3)4-12-7(10,11)5(8)9/h5H,4H2,1-3H3", "formula_alphabetical": "C7 F4 H12 O1", "chemsys": "C-F-H-O", "energy": -748.605513991, "esp": {"1": ["F", -0.161344], "2": ["F", -0.206816], "3": ["F", -0.204417], "4": ["F", -0.206828], "5": ["O", -0.366789], "6": ["C", 0.561767], "7": ["C", 0.111748], "8": ["C", -0.367049], "9": ["C", -0.552719], "10": ["C", -0.343158], "11": ["C", 0.356871], "12": ["C", 0.353823], "13": ["H", 0.050982], "14": ["H", 0.046598], "15": ["H", 0.076995], "16": ["H", 0.084279], "17": ["H", 0.073401], "18": ["H", 0.109348], "19": ["H", 0.142852], "20": ["H", 0.110582], "21": ["H", 0.075776], "22": ["H", 0.077242], "23": ["H", 0.072743], "24": ["H", 0.10411]}, "dipole_moment": {"X": -0.4209, "Y": -0.5432, "Z": -3.3333, "Tot": 3.4034}, "functional": "B3LYP", "basis": "6-31+G*", "phase": "gas", "tag": "lis", "state": "successful", "wall_time (s)": 11.874486815999262, "version": "0.0.1", "gauss_version": "ES64L-G16RevC.01", "last_updated": "2021-09-14 22:48:34.286000", "polarizability": 91.02, "fluorinated-solvent": "130475851", "run_ids": ["6141269c45985e3a9c245f44", "614126baee2d63fb13429192"]}