{"_id": "614111f500814eb5c8c187da", "molecule": {"@module": "pymatgen.core.structure", "@class": "Molecule", "charge": 0, "spin_multiplicity": 1, "sites": [{"name": "F", "species": [{"element": "F", "occu": 1}], "xyz": [1.044975, -0.165319, 0.076919], "properties": {}}, {"name": "F", "species": [{"element": "F", "occu": 1}], "xyz": [2.737993, -0.908059, -1.088542], "properties": {}}, {"name": "F", "species": [{"element": "F", "occu": 1}], "xyz": [4.35723, -0.838643, 1.20913], "properties": {}}, {"name": "F", "species": [{"element": "F", "occu": 1}], "xyz": [2.670654, -0.090871, 2.381179], "properties": {}}, {"name": "F", "species": [{"element": "F", "occu": 1}], "xyz": [2.367135, 3.954426, -0.062083], "properties": {}}, {"name": "O", "species": [{"element": "O", "occu": 1}], "xyz": [2.907311, 1.095015, -0.070663], "properties": {}}, {"name": "O", "species": [{"element": "O", "occu": 1}], "xyz": [2.491622, -2.095848, 1.36588], "properties": {}}, {"name": "C", "species": [{"element": "C", "occu": 1}], "xyz": [2.414626, -0.153748, 0.013843], "properties": {}}, {"name": "C", "species": [{"element": "C", "occu": 1}], "xyz": [2.984437, -0.849455, 1.282144], "properties": {}}, {"name": "C", "species": [{"element": "C", "occu": 1}], "xyz": [2.503167, 1.869975, -1.221415], "properties": {}}, {"name": "C", "species": [{"element": "C", "occu": 1}], "xyz": [3.065476, 3.260612, -1.05647], "properties": {}}, {"name": "C", "species": [{"element": "C", "occu": 1}], "xyz": [2.918147, -2.875508, 2.505279], "properties": {}}, {"name": "H", "species": [{"element": "H", "occu": 1}], "xyz": [2.910366, 1.408921, -2.128998], "properties": {}}, {"name": "H", "species": [{"element": "H", "occu": 1}], "xyz": [1.410864, 1.903319, -1.280958], "properties": {}}, {"name": "H", "species": [{"element": "H", "occu": 1}], "xyz": [4.119859, 3.226731, -0.763433], "properties": {}}, {"name": "H", "species": [{"element": "H", "occu": 1}], "xyz": [2.953215, 3.818234, -1.993556], "properties": {}}, {"name": "H", "species": [{"element": "H", "occu": 1}], "xyz": [4.004278, -3.002657, 2.49352], "properties": {}}, {"name": "H", "species": [{"element": "H", "occu": 1}], "xyz": [2.597071, -2.396569, 3.434419], "properties": {}}, {"name": "H", "species": [{"element": "H", "occu": 1}], "xyz": [2.424135, -3.839617, 2.387304], "properties": {}}]}, "smiles": "FC(F)(OCCF)C(F)(F)OC", "inchi": "InChI=1S/C5H7F5O2/c1-11-4(7,8)5(9,10)12-3-2-6/h2-3H2,1H3", "formula_alphabetical": "C5 F5 H7 O2", "chemsys": "C-F-H-O", "energy": -844.432189444, "esp": {"1": ["F", -0.170005], "2": ["F", -0.174995], "3": ["F", -0.181368], "4": ["F", -0.16947], "5": ["F", -0.255874], "6": ["O", -0.264376], "7": ["O", -0.268426], "8": ["C", 0.33132], "9": ["C", 0.401545], "10": ["C", 0.042841], "11": ["C", 0.117283], "12": ["C", -0.056481], "13": ["H", 0.07888], "14": ["H", 0.118376], "15": ["H", 0.087763], "16": ["H", 0.061766], "17": ["H", 0.097125], "18": ["H", 0.09841], "19": ["H", 0.105687]}, "dipole_moment": {"X": 0.9529, "Y": -1.0987, "Z": -1.243, "Tot": 1.9132}, "functional": "B3LYP", "basis": "6-31+G*", "phase": "gas", "tag": "lis", "state": "successful", "wall_time (s)": 9.349128677975386, "version": "0.0.1", "gauss_version": "ES64L-G16RevC.01", "last_updated": "2021-09-14 21:19:49.681000", "polarizability": 72.66, "fluorinated-solvent": "59766471", "run_ids": ["614111346dbbe7f1b41b221b", "6141118d2b6a0eecad65c6a7"]}