{"_id": "614123b6884647149b8c6278", "molecule": {"@module": "pymatgen.core.structure", "@class": "Molecule", "charge": 0, "spin_multiplicity": 1, "sites": [{"name": "F", "species": [{"element": "F", "occu": 1}], "xyz": [1.068659, 0.023303, 0.406609], "properties": {}}, {"name": "F", "species": [{"element": "F", "occu": 1}], "xyz": [3.010547, -0.388827, 1.325491], "properties": {}}, {"name": "F", "species": [{"element": "F", "occu": 1}], "xyz": [2.359817, 1.686101, -1.479884], "properties": {}}, {"name": "F", "species": [{"element": "F", "occu": 1}], "xyz": [1.917541, -2.729041, 0.308323], "properties": {}}, {"name": "F", "species": [{"element": "F", "occu": 1}], "xyz": [0.826924, -2.024598, -1.448249], "properties": {}}, {"name": "F", "species": [{"element": "F", "occu": 1}], "xyz": [3.091478, -2.481001, -3.03144], "properties": {}}, {"name": "F", "species": [{"element": "F", "occu": 1}], "xyz": [4.163939, -3.204385, -1.275142], "properties": {}}, {"name": "F", "species": [{"element": "F", "occu": 1}], "xyz": [3.366794, 3.557674, 0.47671], "properties": {}}, {"name": "F", "species": [{"element": "F", "occu": 1}], "xyz": [3.754008, -6.025786, -1.82132], "properties": {}}, {"name": "O", "species": [{"element": "O", "occu": 1}], "xyz": [2.703231, -0.936989, -0.839732], "properties": {}}, {"name": "O", "species": [{"element": "O", "occu": 1}], "xyz": [2.286012, -4.27588, -1.934434], "properties": {}}, {"name": "C", "species": [{"element": "C", "occu": 1}], "xyz": [2.40476, -0.024247, 0.155524], "properties": {}}, {"name": "C", "species": [{"element": "C", "occu": 1}], "xyz": [2.938708, 1.351113, -0.263152], "properties": {}}, {"name": "C", "species": [{"element": "C", "occu": 1}], "xyz": [2.059617, -2.156036, -0.907624], "properties": {}}, {"name": "C", "species": [{"element": "C", "occu": 1}], "xyz": [2.922599, -3.081613, -1.815585], "properties": {}}, {"name": "C", "species": [{"element": "C", "occu": 1}], "xyz": [2.615284, 2.418612, 0.769146], "properties": {}}, {"name": "C", "species": [{"element": "C", "occu": 1}], "xyz": [2.945483, -5.29272, -2.663558], "properties": {}}, {"name": "H", "species": [{"element": "H", "occu": 1}], "xyz": [4.020497, 1.268873, -0.408872], "properties": {}}, {"name": "H", "species": [{"element": "H", "occu": 1}], "xyz": [1.555615, 2.684663, 0.721391], "properties": {}}, {"name": "H", "species": [{"element": "H", "occu": 1}], "xyz": [2.88171, 2.082683, 1.7757], "properties": {}}, {"name": "H", "species": [{"element": "H", "occu": 1}], "xyz": [2.157926, -5.944937, -3.040767], "properties": {}}, {"name": "H", "species": [{"element": "H", "occu": 1}], "xyz": [3.56717, -4.872805, -3.458129], "properties": {}}]}, "smiles": "FC(F)(OC(F)(F)C(F)(F)OCF)[C@@H](F)CF", "inchi": "InChI=1S/C6H5F9O2/c7-1-3(9)4(10,11)17-6(14,15)5(12,13)16-2-8/h3H,1-2H2/t3-/m0/s1", "formula_alphabetical": "C6 F9 H5 O2", "chemsys": "C-F-H-O", "energy": -1280.71669796, "esp": {"1": ["F", -0.169207], "2": ["F", -0.20349], "3": ["F", -0.20999], "4": ["F", -0.108314], "5": ["F", -0.132658], "6": ["F", -0.162909], "7": ["F", -0.131328], "8": ["F", -0.241239], "9": ["F", -0.233687], "10": ["O", -0.291954], "11": ["O", -0.296081], "12": ["C", 0.466774], "13": ["C", 0.134102], "14": ["C", 0.353997], "15": ["C", 0.365414], "16": ["C", 0.070605], "17": ["C", 0.291137], "18": ["H", 0.12268], "19": ["H", 0.10728], "20": ["H", 0.090147], "21": ["H", 0.092532], "22": ["H", 0.086188]}, "dipole_moment": {"X": -0.1771, "Y": -1.0728, "Z": -0.6395, "Tot": 1.2614}, "functional": "B3LYP", "basis": "6-31+G*", "phase": "gas", "tag": "lis", "state": "successful", "wall_time (s)": 16.964739526971243, "version": "0.0.1", "gauss_version": "ES64L-G16RevC.01", "last_updated": "2021-09-14 22:35:34.555000", "polarizability": 87.13, "fluorinated-solvent": "89114502", "run_ids": ["61412396b3c230f4d4335251", "614123aed8a44badecaa5d31"]}