{"_id": "61411e150366299e94893a47", "molecule": {"@module": "pymatgen.core.structure", "@class": "Molecule", "charge": 0, "spin_multiplicity": 1, "sites": [{"name": "F", "species": [{"element": "F", "occu": 1}], "xyz": [1.354709, 0.269788, 0.672334], "properties": {}}, {"name": "F", "species": [{"element": "F", "occu": 1}], "xyz": [3.498464, 0.401206, 1.077596], "properties": {}}, {"name": "F", "species": [{"element": "F", "occu": 1}], "xyz": [2.592573, -2.140147, 1.727118], "properties": {}}, {"name": "F", "species": [{"element": "F", "occu": 1}], "xyz": [0.989496, -2.443431, 0.280356], "properties": {}}, {"name": "F", "species": [{"element": "F", "occu": 1}], "xyz": [3.986851, 0.861062, -1.621864], "properties": {}}, {"name": "F", "species": [{"element": "F", "occu": 1}], "xyz": [1.847015, 0.731112, -2.032623], "properties": {}}, {"name": "F", "species": [{"element": "F", "occu": 1}], "xyz": [2.685472, 3.294271, -2.658211], "properties": {}}, {"name": "F", "species": [{"element": "F", "occu": 1}], "xyz": [2.39367, 4.479151, -0.850365], "properties": {}}, {"name": "F", "species": [{"element": "F", "occu": 1}], "xyz": [4.327703, 3.57654, -1.26267], "properties": {}}, {"name": "O", "species": [{"element": "O", "occu": 1}], "xyz": [2.766175, -1.197469, -0.331941], "properties": {}}, {"name": "O", "species": [{"element": "O", "occu": 1}], "xyz": [2.620028, -4.660545, 0.511358], "properties": {}}, {"name": "O", "species": [{"element": "O", "occu": 1}], "xyz": [2.575352, 2.323939, -0.616291], "properties": {}}, {"name": "C", "species": [{"element": "C", "occu": 1}], "xyz": [2.579572, 0.076731, 0.134388], "properties": {}}, {"name": "C", "species": [{"element": "C", "occu": 1}], "xyz": [2.333551, -2.313872, 0.406182], "properties": {}}, {"name": "C", "species": [{"element": "C", "occu": 1}], "xyz": [2.758722, 1.036389, -1.083169], "properties": {}}, {"name": "C", "species": [{"element": "C", "occu": 1}], "xyz": [3.070731, -3.518609, -0.161763], "properties": {}}, {"name": "C", "species": [{"element": "C", "occu": 1}], "xyz": [3.247219, -5.863993, 0.063361], "properties": {}}, {"name": "C", "species": [{"element": "C", "occu": 1}], "xyz": [2.676025, -7.018837, 0.866663], "properties": {}}, {"name": "C", "species": [{"element": "C", "occu": 1}], "xyz": [3.000583, 3.406679, -1.358269], "properties": {}}, {"name": "H", "species": [{"element": "H", "occu": 1}], "xyz": [2.860968, -3.559598, -1.241845], "properties": {}}, {"name": "H", "species": [{"element": "H", "occu": 1}], "xyz": [4.148381, -3.346001, -0.017177], "properties": {}}, {"name": "H", "species": [{"element": "H", "occu": 1}], "xyz": [3.055747, -5.999551, -1.013919], "properties": {}}, {"name": "H", "species": [{"element": "H", "occu": 1}], "xyz": [4.337762, -5.785686, 0.205309], "properties": {}}, {"name": "H", "species": [{"element": "H", "occu": 1}], "xyz": [1.593306, -7.089077, 0.719269], "properties": {}}, {"name": "H", "species": [{"element": "H", "occu": 1}], "xyz": [3.135024, -7.962276, 0.549277], "properties": {}}, {"name": "H", "species": [{"element": "H", "occu": 1}], "xyz": [2.871641, -6.876057, 1.934516], "properties": {}}]}, "smiles": "FC(F)(OC(F)(F)COCC)C(F)(F)OC(F)(F)F", "inchi": "InChI=1S/C7H7F9O3/c1-2-17-3-4(8,9)18-5(10,11)6(12,13)19-7(14,15)16/h2-3H2,1H3", "formula_alphabetical": "C7 F9 H7 O3", "chemsys": "C-F-H-O", "energy": -1395.2653998, "esp": {"1": ["F", -0.157041], "2": ["F", -0.16421], "3": ["F", -0.222296], "4": ["F", -0.23048], "5": ["F", -0.159298], "6": ["F", -0.148425], "7": ["F", -0.172315], "8": ["F", -0.16471], "9": ["F", -0.178551], "10": ["O", -0.468761], "11": ["O", -0.416644], "12": ["O", -0.346621], "13": ["C", 0.47977], "14": ["C", 0.78888], "15": ["C", 0.457095], "16": ["C", -0.126162], "17": ["C", 0.408345], "18": ["C", -0.334769], "19": ["C", 0.697519], "20": ["H", 0.110441], "21": ["H", 0.113833], "22": ["H", -0.023366], "23": ["H", -0.021662], "24": ["H", 0.103637], "25": ["H", 0.075019], "26": ["H", 0.100775]}, "dipole_moment": {"X": 1.7748, "Y": -3.0171, "Z": -1.4295, "Tot": 3.7811}, "functional": "B3LYP", "basis": "6-31+G*", "phase": "gas", "tag": "lis", "state": "successful", "wall_time (s)": 20.393360477057286, "version": "0.0.1", "gauss_version": "ES64L-G16RevC.01", "last_updated": "2021-09-14 22:11:33.168000", "polarizability": 105.0, "fluorinated-solvent": "134444330", "run_ids": ["61411df19e3dfd5206308ab9", "61411e10576c2cbfc320d729"]}