{"_id": "614123dd6cc8a598e68bac3f", "molecule": {"@module": "pymatgen.core.structure", "@class": "Molecule", "charge": 0, "spin_multiplicity": 1, "sites": [{"name": "F", "species": [{"element": "F", "occu": 1}], "xyz": [0.598135, -0.158978, -0.76105], "properties": {}}, {"name": "F", "species": [{"element": "F", "occu": 1}], "xyz": [0.553115, 1.55062, -2.113385], "properties": {}}, {"name": "F", "species": [{"element": "F", "occu": 1}], "xyz": [-1.072573, 1.250027, -0.681231], "properties": {}}, {"name": "F", "species": [{"element": "F", "occu": 1}], "xyz": [7.110091, 3.880583, -0.26103], "properties": {}}, {"name": "F", "species": [{"element": "F", "occu": 1}], "xyz": [6.950205, 2.211274, -3.40481], "properties": {}}, {"name": "F", "species": [{"element": "F", "occu": 1}], "xyz": [8.711117, 2.903651, -2.261723], "properties": {}}, {"name": "O", "species": [{"element": "O", "occu": 1}], "xyz": [2.380926, 1.85852, 0.172373], "properties": {}}, {"name": "O", "species": [{"element": "O", "occu": 1}], "xyz": [5.245013, 3.322622, -1.452526], "properties": {}}, {"name": "C", "species": [{"element": "C", "occu": 1}], "xyz": [3.067088, 2.646499, -0.800733], "properties": {}}, {"name": "C", "species": [{"element": "C", "occu": 1}], "xyz": [0.983516, 1.993369, 0.205045], "properties": {}}, {"name": "C", "species": [{"element": "C", "occu": 1}], "xyz": [4.544677, 2.514859, -0.472119], "properties": {}}, {"name": "C", "species": [{"element": "C", "occu": 1}], "xyz": [0.27001, 1.14611, -0.848106], "properties": {}}, {"name": "C", "species": [{"element": "C", "occu": 1}], "xyz": [6.576528, 3.303859, -1.366291], "properties": {}}, {"name": "C", "species": [{"element": "C", "occu": 1}], "xyz": [7.385626, 2.81379, -2.301782], "properties": {}}, {"name": "H", "species": [{"element": "H", "occu": 1}], "xyz": [2.872546, 2.289474, -1.818394], "properties": {}}, {"name": "H", "species": [{"element": "H", "occu": 1}], "xyz": [2.758285, 3.700234, -0.733148], "properties": {}}, {"name": "H", "species": [{"element": "H", "occu": 1}], "xyz": [0.658352, 3.034959, 0.069135], "properties": {}}, {"name": "H", "species": [{"element": "H", "occu": 1}], "xyz": [0.646546, 1.638152, 1.182611], "properties": {}}, {"name": "H", "species": [{"element": "H", "occu": 1}], "xyz": [4.755247, 2.885491, 0.535929], "properties": {}}, {"name": "H", "species": [{"element": "H", "occu": 1}], "xyz": [4.87263, 1.472271, -0.556376], "properties": {}}]}, "smiles": "FC(F)(F)COCCOC(=C(F)F)F", "inchi": "InChI=1S/C6H6F6O2/c7-4(8)5(9)14-2-1-13-3-6(10,11)12/h1-3H2", "formula_alphabetical": "C6 F6 H6 O2", "chemsys": "C-F-H-O", "energy": -981.727117275, "esp": {"1": ["F", -0.186471], "2": ["F", -0.207925], "3": ["F", -0.236789], "4": ["F", -0.190639], "5": ["F", -0.136516], "6": ["F", -0.152022], "7": ["O", -0.447044], "8": ["O", -0.378514], "9": ["C", 0.338836], "10": ["C", -0.031319], "11": ["C", 0.068798], "12": ["C", 0.599791], "13": ["C", 0.304781], "14": ["C", 0.269995], "15": ["H", 0.007434], "16": ["H", 0.019809], "17": ["H", 0.083858], "18": ["H", 0.133315], "19": ["H", 0.087256], "20": ["H", 0.053366]}, "dipole_moment": {"X": -1.3348, "Y": 0.9625, "Z": 1.7418, "Tot": 2.3963}, "functional": "B3LYP", "basis": "6-31+G*", "phase": "gas", "tag": "lis", "state": "successful", "wall_time (s)": 11.1312241749838, "version": "0.0.1", "gauss_version": "ES64L-G16RevC.01", "last_updated": "2021-09-14 22:36:12.890000", "polarizability": 85.64, "fluorinated-solvent": "134214935", "run_ids": ["614123c1e528caf287e93ad5", "614123d8f14b4fe8f7b723c3"]}