{"_id": "613a4c80244a9a9420605816", "molecule": {"@module": "pymatgen.core.structure", "@class": "Molecule", "charge": 0, "spin_multiplicity": 1, "sites": [{"name": "F", "species": [{"element": "F", "occu": 1}], "xyz": [1.118665, -0.025707, 0.230779], "properties": {}}, {"name": "F", "species": [{"element": "F", "occu": 1}], "xyz": [2.796078, -1.27117, -0.418241], "properties": {}}, {"name": "F", "species": [{"element": "F", "occu": 1}], "xyz": [2.817157, 1.366191, 1.951331], "properties": {}}, {"name": "F", "species": [{"element": "F", "occu": 1}], "xyz": [2.811629, -0.821895, 2.260151], "properties": {}}, {"name": "F", "species": [{"element": "F", "occu": 1}], "xyz": [4.296253, 1.632899, -3.211139], "properties": {}}, {"name": "O", "species": [{"element": "O", "occu": 1}], "xyz": [2.880083, 0.953967, -0.783782], "properties": {}}, {"name": "C", "species": [{"element": "C", "occu": 1}], "xyz": [2.478041, -0.019013, 0.058099], "properties": {}}, {"name": "C", "species": [{"element": "C", "occu": 1}], "xyz": [2.292996, 0.952864, -2.10576], "properties": {}}, {"name": "C", "species": [{"element": "C", "occu": 1}], "xyz": [3.190702, 0.172346, 1.411487], "properties": {}}, {"name": "C", "species": [{"element": "C", "occu": 1}], "xyz": [2.985911, 2.023794, -2.911558], "properties": {}}, {"name": "H", "species": [{"element": "H", "occu": 1}], "xyz": [2.432031, -0.028206, -2.570373], "properties": {}}, {"name": "H", "species": [{"element": "H", "occu": 1}], "xyz": [1.223238, 1.177958, -2.025823], "properties": {}}, {"name": "H", "species": [{"element": "H", "occu": 1}], "xyz": [4.276967, 0.153085, 1.289081], "properties": {}}, {"name": "H", "species": [{"element": "H", "occu": 1}], "xyz": [2.45683, 2.175293, -3.859385], "properties": {}}, {"name": "H", "species": [{"element": "H", "occu": 1}], "xyz": [3.036969, 2.965474, -2.355349], "properties": {}}]}, "smiles": "FC(F)(OCCF)C(F)F", "inchi": "InChI=1S/C4H5F5O/c5-1-2-10-4(8,9)3(6)7/h3H,1-2H2", "formula_alphabetical": "C4 F5 H5 O1", "chemsys": "C-F-H-O", "energy": -729.895394778, "esp": {"1": ["F", -0.15242], "2": ["F", -0.191448], "3": ["F", -0.197846], "4": ["F", -0.192552], "5": ["F", -0.261647], "6": ["O", -0.321652], "7": ["C", 0.340942], "8": ["C", 0.099597], "9": ["C", 0.316539], "10": ["C", 0.120489], "11": ["H", 0.106723], "12": ["H", 0.063004], "13": ["H", 0.121384], "14": ["H", 0.06058], "15": ["H", 0.088309]}, "dipole_moment": {"X": -0.6713, "Y": 1.313, "Z": -2.206, "Tot": 2.6535}, "functional": "B3LYP", "basis": "6-31+G*", "phase": "gas", "tag": "lis", "state": "successful", "wall_time (s)": 7.877930855029263, "version": "0.0.1", "gauss_version": "ES64L-G16RevC.01", "last_updated": "2021-09-09 18:03:44.476000", "polarizability": 56.61, "fluorinated-solvent": "11286648", "run_ids": ["613a498c0d1d58727483d8d5", "613a4b634aace597aa5bb7f4"]}