{"_id": "613a514a2b3e0279d337f4a0", "molecule": {"@module": "pymatgen.core.structure", "@class": "Molecule", "charge": 0, "spin_multiplicity": 1, "sites": [{"name": "F", "species": [{"element": "F", "occu": 1}], "xyz": [1.536581, 2.257821, -3.128368], "properties": {}}, {"name": "F", "species": [{"element": "F", "occu": 1}], "xyz": [0.714313, 1.468158, -1.268919], "properties": {}}, {"name": "F", "species": [{"element": "F", "occu": 1}], "xyz": [3.61069, -4.263364, -1.885104], "properties": {}}, {"name": "F", "species": [{"element": "F", "occu": 1}], "xyz": [5.136261, -2.80175, -1.343393], "properties": {}}, {"name": "F", "species": [{"element": "F", "occu": 1}], "xyz": [1.969105, 3.899732, -1.05932], "properties": {}}, {"name": "F", "species": [{"element": "F", "occu": 1}], "xyz": [2.841097, 2.288461, 0.165718], "properties": {}}, {"name": "F", "species": [{"element": "F", "occu": 1}], "xyz": [4.49812, -4.61537, 0.615218], "properties": {}}, {"name": "F", "species": [{"element": "F", "occu": 1}], "xyz": [4.146767, -2.504791, 1.143663], "properties": {}}, {"name": "F", "species": [{"element": "F", "occu": 1}], "xyz": [4.61078, 4.132161, -0.936565], "properties": {}}, {"name": "F", "species": [{"element": "F", "occu": 1}], "xyz": [4.944957, 2.062717, -1.527237], "properties": {}}, {"name": "F", "species": [{"element": "F", "occu": 1}], "xyz": [4.04481, 3.466429, -2.936544], "properties": {}}, {"name": "F", "species": [{"element": "F", "occu": 1}], "xyz": [1.72515, -4.846396, 0.088581], "properties": {}}, {"name": "F", "species": [{"element": "F", "occu": 1}], "xyz": [2.331981, -4.370171, 2.130255], "properties": {}}, {"name": "F", "species": [{"element": "F", "occu": 1}], "xyz": [1.469934, -2.821651, 0.864543], "properties": {}}, {"name": "O", "species": [{"element": "O", "occu": 1}], "xyz": [2.629698, 0.59307, -2.075046], "properties": {}}, {"name": "O", "species": [{"element": "O", "occu": 1}], "xyz": [2.975955, -2.157749, -1.395981], "properties": {}}, {"name": "C", "species": [{"element": "C", "occu": 1}], "xyz": [1.891722, 1.705853, -1.924433], "properties": {}}, {"name": "C", "species": [{"element": "C", "occu": 1}], "xyz": [3.833827, -3.152464, -1.112868], "properties": {}}, {"name": "C", "species": [{"element": "C", "occu": 1}], "xyz": [2.692761, 2.754813, -1.096963], "properties": {}}, {"name": "C", "species": [{"element": "C", "occu": 1}], "xyz": [3.705124, -3.539926, 0.390462], "properties": {}}, {"name": "C", "species": [{"element": "C", "occu": 1}], "xyz": [2.021424, -0.497834, -2.806386], "properties": {}}, {"name": "C", "species": [{"element": "C", "occu": 1}], "xyz": [2.982937, -1.65846, -2.754513], "properties": {}}, {"name": "C", "species": [{"element": "C", "occu": 1}], "xyz": [4.110974, 3.105869, -1.643059], "properties": {}}, {"name": "C", "species": [{"element": "C", "occu": 1}], "xyz": [2.266725, -3.899654, 0.87464], "properties": {}}, {"name": "H", "species": [{"element": "H", "occu": 1}], "xyz": [1.065607, -0.761697, -2.34477], "properties": {}}, {"name": "H", "species": [{"element": "H", "occu": 1}], "xyz": [1.863838, -0.192586, -3.8461], "properties": {}}, {"name": "H", "species": [{"element": "H", "occu": 1}], "xyz": [2.646324, -2.44976, -3.432416], "properties": {}}, {"name": "H", "species": [{"element": "H", "occu": 1}], "xyz": [3.994187, -1.340175, -3.02356], "properties": {}}]}, "smiles": "FC(F)(OCCOC(F)(F)C(F)(F)C(F)(F)F)C(F)(F)C(F)(F)F", "inchi": "InChI=1S/C8H4F14O2/c9-3(10,5(13,14)15)7(19,20)23-1-2-24-8(21,22)4(11,12)6(16,17)18/h1-2H2", "formula_alphabetical": "C8 F14 H4 O2", "chemsys": "C-F-H-O", "energy": -1855.56750272, "esp": {"1": ["F", -0.164232], "2": ["F", -0.136628], "3": ["F", -0.175982], "4": ["F", -0.148377], "5": ["F", -0.118475], "6": ["F", -0.121187], "7": ["F", -0.119928], "8": ["F", -0.118676], "9": ["F", -0.139325], "10": ["F", -0.148552], "11": ["F", -0.146915], "12": ["F", -0.137593], "13": ["F", -0.128694], "14": ["F", -0.13717], "15": ["O", -0.24121], "16": ["O", -0.276838], "17": ["C", 0.324857], "18": ["C", 0.386164], "19": ["C", 0.188232], "20": ["C", 0.1814], "21": ["C", 0.035423], "22": ["C", 0.04041], "23": ["C", 0.460366], "24": ["C", 0.422873], "25": ["H", 0.115986], "26": ["H", 0.095898], "27": ["H", 0.096426], "28": ["H", 0.111746]}, "dipole_moment": {"X": -0.9667, "Y": -0.9509, "Z": -3.3726, "Tot": 3.635}, "functional": "B3LYP", "basis": "6-31+G*", "phase": "gas", "tag": "lis", "state": "successful", "wall_time (s)": 53.01501952693798, "version": "0.0.1", "gauss_version": "ES64L-G16RevC.01", "last_updated": "2021-09-09 18:24:09.787000", "polarizability": 114.14, "fluorinated-solvent": "22061857", "run_ids": ["613a4aa257d3737bf83223fb", "613a5141bfa4a262885f319e"]}