{"_id": "61410f3581f723b1ef1a9f8c", "molecule": {"@module": "pymatgen.core.structure", "@class": "Molecule", "charge": 0, "spin_multiplicity": 1, "sites": [{"name": "F", "species": [{"element": "F", "occu": 1}], "xyz": [2.330202, -3.306792, 3.081247], "properties": {}}, {"name": "F", "species": [{"element": "F", "occu": 1}], "xyz": [4.176762, -3.032163, 1.932503], "properties": {}}, {"name": "O", "species": [{"element": "O", "occu": 1}], "xyz": [2.224773, 3.079239, 2.340559], "properties": {}}, {"name": "O", "species": [{"element": "O", "occu": 1}], "xyz": [3.517351, -1.399078, 3.354273], "properties": {}}, {"name": "C", "species": [{"element": "C", "occu": 1}], "xyz": [2.854727, 0.832962, 2.820077], "properties": {}}, {"name": "C", "species": [{"element": "C", "occu": 1}], "xyz": [2.117418, 1.753328, 1.853398], "properties": {}}, {"name": "C", "species": [{"element": "C", "occu": 1}], "xyz": [2.789146, -0.617734, 2.370751], "properties": {}}, {"name": "C", "species": [{"element": "C", "occu": 1}], "xyz": [1.572468, 4.041097, 1.519579], "properties": {}}, {"name": "C", "species": [{"element": "C", "occu": 1}], "xyz": [1.760165, 5.412769, 2.146661], "properties": {}}, {"name": "C", "species": [{"element": "C", "occu": 1}], "xyz": [3.583016, -2.728256, 3.142074], "properties": {}}, {"name": "H", "species": [{"element": "H", "occu": 1}], "xyz": [2.41325, 0.929241, 3.818526], "properties": {}}, {"name": "H", "species": [{"element": "H", "occu": 1}], "xyz": [3.901678, 1.148805, 2.892257], "properties": {}}, {"name": "H", "species": [{"element": "H", "occu": 1}], "xyz": [2.554134, 1.68356, 0.841041], "properties": {}}, {"name": "H", "species": [{"element": "H", "occu": 1}], "xyz": [1.054695, 1.462206, 1.773882], "properties": {}}, {"name": "H", "species": [{"element": "H", "occu": 1}], "xyz": [3.257686, -0.758668, 1.390324], "properties": {}}, {"name": "H", "species": [{"element": "H", "occu": 1}], "xyz": [1.7562, -0.980557, 2.325791], "properties": {}}, {"name": "H", "species": [{"element": "H", "occu": 1}], "xyz": [1.999921, 4.015128, 0.502308], "properties": {}}, {"name": "H", "species": [{"element": "H", "occu": 1}], "xyz": [0.500089, 3.794003, 1.434889], "properties": {}}, {"name": "H", "species": [{"element": "H", "occu": 1}], "xyz": [2.825332, 5.65653, 2.222784], "properties": {}}, {"name": "H", "species": [{"element": "H", "occu": 1}], "xyz": [1.268397, 6.180537, 1.537686], "properties": {}}, {"name": "H", "species": [{"element": "H", "occu": 1}], "xyz": [1.32878, 5.43597, 3.153223], "properties": {}}, {"name": "H", "species": [{"element": "H", "occu": 1}], "xyz": [4.151952, -3.200198, 3.943777], "properties": {}}]}, "smiles": "FC(F)OCCCOCC", "inchi": "InChI=1S/C6H12F2O2/c1-2-9-4-3-5-10-6(7)8/h6H,2-5H2,1H3", "formula_alphabetical": "C6 F2 H12 O2", "chemsys": "C-F-H-O", "energy": -586.015133198, "esp": {"1": ["F", -0.261147], "2": ["F", -0.260809], "3": ["O", -0.500368], "4": ["O", -0.487666], "5": ["C", -0.005961], "6": ["C", 0.196195], "7": ["C", 0.319804], "8": ["C", 0.454802], "9": ["C", -0.378327], "10": ["C", 0.557118], "11": ["H", 0.03774], "12": ["H", 0.038259], "13": ["H", -0.012794], "14": ["H", -0.015421], "15": ["H", 0.006795], "16": ["H", 0.007041], "17": ["H", -0.03662], "18": ["H", -0.039495], "19": ["H", 0.106089], "20": ["H", 0.077359], "21": ["H", 0.108115], "22": ["H", 0.089292]}, "dipole_moment": {"X": -0.6941, "Y": 1.524, "Z": -0.7523, "Tot": 1.8358}, "functional": "B3LYP", "basis": "6-31+G*", "phase": "gas", "tag": "lis", "state": "successful", "wall_time (s)": 9.089626164059155, "version": "0.0.1", "gauss_version": "ES64L-G16RevC.01", "last_updated": "2021-09-14 21:08:05.239000", "polarizability": 83.27, "fluorinated-solvent": "132186867", "run_ids": ["61410ef04ed5e4987d277563", "61410f16a85fd899e959404d"]}