{"_id": "613a551a8458f07ebfc0e7c1", "molecule": {"@module": "pymatgen.core.structure", "@class": "Molecule", "charge": 0, "spin_multiplicity": 1, "sites": [{"name": "F", "species": [{"element": "F", "occu": 1}], "xyz": [1.170098, -0.023882, -0.181498], "properties": {}}, {"name": "F", "species": [{"element": "F", "occu": 1}], "xyz": [2.920612, 1.323217, -0.070555], "properties": {}}, {"name": "F", "species": [{"element": "F", "occu": 1}], "xyz": [2.948492, -0.213718, -2.291374], "properties": {}}, {"name": "F", "species": [{"element": "F", "occu": 1}], "xyz": [4.534209, -0.834719, -0.87563], "properties": {}}, {"name": "F", "species": [{"element": "F", "occu": 1}], "xyz": [4.006367, -2.385195, 3.092091], "properties": {}}, {"name": "F", "species": [{"element": "F", "occu": 1}], "xyz": [1.975691, -1.837302, 3.697658], "properties": {}}, {"name": "O", "species": [{"element": "O", "occu": 1}], "xyz": [2.498201, -1.841796, 1.502185], "properties": {}}, {"name": "C", "species": [{"element": "C", "occu": 1}], "xyz": [2.523338, 0.019401, 0.029797], "properties": {}}, {"name": "C", "species": [{"element": "C", "occu": 1}], "xyz": [2.850016, -0.449782, 1.438099], "properties": {}}, {"name": "C", "species": [{"element": "C", "occu": 1}], "xyz": [3.181812, -0.807406, -1.090086], "properties": {}}, {"name": "C", "species": [{"element": "C", "occu": 1}], "xyz": [2.691672, -2.451842, 2.700768], "properties": {}}, {"name": "H", "species": [{"element": "H", "occu": 1}], "xyz": [3.917455, -0.311376, 1.627086], "properties": {}}, {"name": "H", "species": [{"element": "H", "occu": 1}], "xyz": [2.255936, 0.137668, 2.143726], "properties": {}}, {"name": "H", "species": [{"element": "H", "occu": 1}], "xyz": [2.802686, -1.831484, -1.11207], "properties": {}}, {"name": "H", "species": [{"element": "H", "occu": 1}], "xyz": [2.387086, -3.495654, 2.623383], "properties": {}}]}, "smiles": "FC(F)(COC(F)F)C(F)F", "inchi": "InChI=1S/C4H4F6O/c5-2(6)4(9,10)1-11-3(7)8/h2-3H,1H2", "formula_alphabetical": "C4 F6 H4 O1", "chemsys": "C-F-H-O", "energy": -829.14482444, "esp": {"1": ["F", -0.199853], "2": ["F", -0.202333], "3": ["F", -0.198052], "4": ["F", -0.203746], "5": ["F", -0.222984], "6": ["F", -0.223376], "7": ["O", -0.378712], "8": ["C", 0.37115], "9": ["C", -0.073962], "10": ["C", 0.328233], "11": ["C", 0.477483], "12": ["H", 0.136314], "13": ["H", 0.171381], "14": ["H", 0.102127], "15": ["H", 0.11633]}, "dipole_moment": {"X": -0.3491, "Y": -1.9941, "Z": 1.0059, "Tot": 2.2605}, "functional": "B3LYP", "basis": "6-31+G*", "phase": "gas", "tag": "lis", "state": "successful", "wall_time (s)": 7.788647701963782, "version": "0.0.1", "gauss_version": "ES64L-G16RevC.01", "last_updated": "2021-09-09 18:40:25.850000", "polarizability": 56.86, "fluorinated-solvent": "2737027", "run_ids": ["613a4adbde2986f6d2d9e962", "613a550d8a5a807d111b13d7"]}