{"_id": "61412cb5c4cf3cf38c9a8afa", "molecule": {"@module": "pymatgen.core.structure", "@class": "Molecule", "charge": 0, "spin_multiplicity": 1, "sites": [{"name": "F", "species": [{"element": "F", "occu": 1}], "xyz": [1.005292, 0.258784, -0.347385], "properties": {}}, {"name": "F", "species": [{"element": "F", "occu": 1}], "xyz": [2.91168, 1.095544, -1.017882], "properties": {}}, {"name": "F", "species": [{"element": "F", "occu": 1}], "xyz": [2.778819, 2.719579, 3.640947], "properties": {}}, {"name": "F", "species": [{"element": "F", "occu": 1}], "xyz": [2.40631, 0.54496, 3.856697], "properties": {}}, {"name": "O", "species": [{"element": "O", "occu": 1}], "xyz": [2.759932, 0.262076, 1.065897], "properties": {}}, {"name": "C", "species": [{"element": "C", "occu": 1}], "xyz": [2.802485, -1.283753, -0.747506], "properties": {}}, {"name": "C", "species": [{"element": "C", "occu": 1}], "xyz": [2.375252, 0.084946, -0.230748], "properties": {}}, {"name": "C", "species": [{"element": "C", "occu": 1}], "xyz": [2.201857, -2.402651, 0.116659], "properties": {}}, {"name": "C", "species": [{"element": "C", "occu": 1}], "xyz": [2.435224, -1.445089, -2.229456], "properties": {}}, {"name": "C", "species": [{"element": "C", "occu": 1}], "xyz": [2.379731, 1.497583, 1.684299], "properties": {}}, {"name": "C", "species": [{"element": "C", "occu": 1}], "xyz": [3.004819, 1.49107, 3.064147], "properties": {}}, {"name": "H", "species": [{"element": "H", "occu": 1}], "xyz": [3.894972, -1.294887, -0.643041], "properties": {}}, {"name": "H", "species": [{"element": "H", "occu": 1}], "xyz": [1.108228, -2.399935, 0.047316], "properties": {}}, {"name": "H", "species": [{"element": "H", "occu": 1}], "xyz": [2.561763, -3.374326, -0.238893], "properties": {}}, {"name": "H", "species": [{"element": "H", "occu": 1}], "xyz": [2.481132, -2.293572, 1.168464], "properties": {}}, {"name": "H", "species": [{"element": "H", "occu": 1}], "xyz": [2.877925, -0.656357, -2.844906], "properties": {}}, {"name": "H", "species": [{"element": "H", "occu": 1}], "xyz": [2.800875, -2.411286, -2.593492], "properties": {}}, {"name": "H", "species": [{"element": "H", "occu": 1}], "xyz": [1.348448, -1.420077, -2.365596], "properties": {}}, {"name": "H", "species": [{"element": "H", "occu": 1}], "xyz": [2.765809, 2.350395, 1.117262], "properties": {}}, {"name": "H", "species": [{"element": "H", "occu": 1}], "xyz": [1.291862, 1.570206, 1.777303], "properties": {}}, {"name": "H", "species": [{"element": "H", "occu": 1}], "xyz": [4.081596, 1.29816, 3.062934], "properties": {}}]}, "smiles": "FC(F)(OCC(F)F)C(C)C", "inchi": "InChI=1S/C6H10F4O/c1-4(2)6(9,10)11-3-5(7)8/h4-5H,3H2,1-2H3", "formula_alphabetical": "C6 F4 H10 O1", "chemsys": "C-F-H-O", "energy": -709.301310358, "esp": {"1": ["F", -0.23519], "2": ["F", -0.25273], "3": ["F", -0.276816], "4": ["F", -0.240687], "5": ["O", -0.410145], "6": ["C", 0.29989], "7": ["C", 0.529956], "8": ["C", -0.330525], "9": ["C", -0.411367], "10": ["C", -0.041345], "11": ["C", 0.478556], "12": ["H", -0.003087], "13": ["H", 0.094149], "14": ["H", 0.083759], "15": ["H", 0.084187], "16": ["H", 0.102206], "17": ["H", 0.111833], "18": ["H", 0.104128], "19": ["H", 0.108644], "20": ["H", 0.138277], "21": ["H", 0.066306]}, "dipole_moment": {"X": 1.3152, "Y": -1.1778, "Z": -1.3102, "Tot": 2.1986}, "functional": "B3LYP", "basis": "6-31+G*", "phase": "gas", "tag": "lis", "state": "successful", "wall_time (s)": 10.459244000026956, "version": "0.0.1", "gauss_version": "ES64L-G16RevC.01", "last_updated": "2021-09-14 23:13:56.867000", "polarizability": 78.37, "fluorinated-solvent": "58422607", "run_ids": ["61412c9458903182743d74d8", "61412cb0f954c0205809bbe2"]}