{"_id": "613a56d7a429e30c6b3938cb", "molecule": {"@module": "pymatgen.core.structure", "@class": "Molecule", "charge": 0, "spin_multiplicity": 1, "sites": [{"name": "F", "species": [{"element": "F", "occu": 1}], "xyz": [4.862362, -0.059766, 0.6387], "properties": {}}, {"name": "F", "species": [{"element": "F", "occu": 1}], "xyz": [4.851799, -2.183532, 1.256966], "properties": {}}, {"name": "O", "species": [{"element": "O", "occu": 1}], "xyz": [2.253067, -2.417333, 0.05313], "properties": {}}, {"name": "C", "species": [{"element": "C", "occu": 1}], "xyz": [2.837586, -1.210033, 0.483832], "properties": {}}, {"name": "C", "species": [{"element": "C", "occu": 1}], "xyz": [4.348214, -1.309322, 0.310326], "properties": {}}, {"name": "C", "species": [{"element": "C", "occu": 1}], "xyz": [0.840599, -2.463632, 0.240732], "properties": {}}, {"name": "C", "species": [{"element": "C", "occu": 1}], "xyz": [0.321679, -3.793128, -0.291245], "properties": {}}, {"name": "C", "species": [{"element": "C", "occu": 1}], "xyz": [4.843284, -1.718204, -1.055394], "properties": {}}, {"name": "C", "species": [{"element": "C", "occu": 1}], "xyz": [0.547257, -3.968407, -1.79718], "properties": {}}, {"name": "H", "species": [{"element": "H", "occu": 1}], "xyz": [2.630124, -1.011021, 1.546505], "properties": {}}, {"name": "H", "species": [{"element": "H", "occu": 1}], "xyz": [2.475939, -0.355719, -0.110608], "properties": {}}, {"name": "H", "species": [{"element": "H", "occu": 1}], "xyz": [0.606889, -2.353832, 1.312595], "properties": {}}, {"name": "H", "species": [{"element": "H", "occu": 1}], "xyz": [0.368581, -1.621746, -0.296137], "properties": {}}, {"name": "H", "species": [{"element": "H", "occu": 1}], "xyz": [0.813589, -4.603779, 0.261782], "properties": {}}, {"name": "H", "species": [{"element": "H", "occu": 1}], "xyz": [-0.750575, -3.852464, -0.058992], "properties": {}}, {"name": "H", "species": [{"element": "H", "occu": 1}], "xyz": [4.498506, -1.000792, -1.805934], "properties": {}}, {"name": "H", "species": [{"element": "H", "occu": 1}], "xyz": [5.936478, -1.739784, -1.047983], "properties": {}}, {"name": "H", "species": [{"element": "H", "occu": 1}], "xyz": [4.453119, -2.708705, -1.299668], "properties": {}}, {"name": "H", "species": [{"element": "H", "occu": 1}], "xyz": [1.614872, -3.929572, -2.036744], "properties": {}}, {"name": "H", "species": [{"element": "H", "occu": 1}], "xyz": [0.153535, -4.930453, -2.145087], "properties": {}}, {"name": "H", "species": [{"element": "H", "occu": 1}], "xyz": [0.044875, -3.174323, -2.365323], "properties": {}}]}, "smiles": "FC(F)(COCCC)C", "inchi": "InChI=1S/C6H12F2O/c1-3-4-9-5-6(2,7)8/h3-5H2,1-2H3", "formula_alphabetical": "C6 F2 H12 O1", "chemsys": "C-F-H-O", "energy": -510.79993418, "esp": {"1": ["F", -0.302094], "2": ["F", -0.277337], "3": ["O", -0.25874], "4": ["C", -0.161801], "5": ["C", 0.644201], "6": ["C", -0.003775], "7": ["C", 0.116496], "8": ["C", -0.434231], "9": ["C", -0.183338], "10": ["H", 0.114339], "11": ["H", 0.10055], "12": ["H", 0.049645], "13": ["H", 0.058781], "14": ["H", 0.005491], "15": ["H", -0.00738], "16": ["H", 0.130537], "17": ["H", 0.143549], "18": ["H", 0.127957], "19": ["H", 0.046428], "20": ["H", 0.045904], "21": ["H", 0.044819]}, "dipole_moment": {"X": -2.4472, "Y": -0.0301, "Z": -1.4829, "Tot": 2.8616}, "functional": "B3LYP", "basis": "6-31+G*", "phase": "gas", "tag": "lis", "state": "successful", "wall_time (s)": 13.089401250006631, "version": "0.0.1", "gauss_version": "ES64L-G16RevC.01", "last_updated": "2021-09-09 18:47:51.475000", "polarizability": 77.82, "fluorinated-solvent": "53681223", "run_ids": ["613a4af6e2de63425e095b0b", "613a56ca071b16439153b73c"]}