{"_id": "614124bd483da09b5cb76798", "molecule": {"@module": "pymatgen.core.structure", "@class": "Molecule", "charge": 0, "spin_multiplicity": 1, "sites": [{"name": "F", "species": [{"element": "F", "occu": 1}], "xyz": [0.964351, 0.214224, -0.08952], "properties": {}}, {"name": "F", "species": [{"element": "F", "occu": 1}], "xyz": [2.56452, 0.509945, 1.366252], "properties": {}}, {"name": "F", "species": [{"element": "F", "occu": 1}], "xyz": [2.660083, 2.313282, -0.742782], "properties": {}}, {"name": "F", "species": [{"element": "F", "occu": 1}], "xyz": [2.484315, -3.799503, -0.978002], "properties": {}}, {"name": "F", "species": [{"element": "F", "occu": 1}], "xyz": [4.112104, -3.504116, 0.493005], "properties": {}}, {"name": "O", "species": [{"element": "O", "occu": 1}], "xyz": [2.743086, -1.174281, -0.125249], "properties": {}}, {"name": "C", "species": [{"element": "C", "occu": 1}], "xyz": [2.326797, 0.103943, 0.072658], "properties": {}}, {"name": "C", "species": [{"element": "C", "occu": 1}], "xyz": [2.15925, -2.171117, 0.720559], "properties": {}}, {"name": "C", "species": [{"element": "C", "occu": 1}], "xyz": [3.062118, 0.998372, -0.917348], "properties": {}}, {"name": "C", "species": [{"element": "C", "occu": 1}], "xyz": [2.749539, -3.512137, 0.336591], "properties": {}}, {"name": "H", "species": [{"element": "H", "occu": 1}], "xyz": [2.391483, -1.965584, 1.770856], "properties": {}}, {"name": "H", "species": [{"element": "H", "occu": 1}], "xyz": [1.073737, -2.204602, 0.579771], "properties": {}}, {"name": "H", "species": [{"element": "H", "occu": 1}], "xyz": [4.137274, 0.924529, -0.73386], "properties": {}}, {"name": "H", "species": [{"element": "H", "occu": 1}], "xyz": [2.817817, 0.680476, -1.934373], "properties": {}}, {"name": "H", "species": [{"element": "H", "occu": 1}], "xyz": [2.341516, -4.322752, 0.950882], "properties": {}}]}, "smiles": "FC(F)(OCC(F)F)CF", "inchi": "InChI=1S/C4H5F5O/c5-2-4(8,9)10-1-3(6)7/h3H,1-2H2", "formula_alphabetical": "C4 F5 H5 O1", "chemsys": "C-F-H-O", "energy": -729.898125259, "esp": {"1": ["F", -0.222048], "2": ["F", -0.220108], "3": ["F", -0.22045], "4": ["F", -0.224288], "5": ["F", -0.226168], "6": ["O", -0.368031], "7": ["C", 0.587384], "8": ["C", -0.036851], "9": ["C", -0.011048], "10": ["C", 0.410578], "11": ["H", 0.111697], "12": ["H", 0.111101], "13": ["H", 0.123108], "14": ["H", 0.125461], "15": ["H", 0.059665]}, "dipole_moment": {"X": -0.399, "Y": -2.047, "Z": 0.868, "Tot": 2.2589}, "functional": "B3LYP", "basis": "6-31+G*", "phase": "gas", "tag": "lis", "state": "successful", "wall_time (s)": 7.65863282897044, "version": "0.0.1", "gauss_version": "ES64L-G16RevC.01", "last_updated": "2021-09-14 22:39:57.033000", "polarizability": 56.25, "fluorinated-solvent": "88430423", "run_ids": ["614124a1824c03b5727ff354", "614124b04141e104b89a82c4"]}