{"_id": "613a4cf5a3206db9099c6206", "molecule": {"@module": "pymatgen.core.structure", "@class": "Molecule", "charge": 0, "spin_multiplicity": 1, "sites": [{"name": "F", "species": [{"element": "F", "occu": 1}], "xyz": [4.725643, -1.37329, -0.271287], "properties": {}}, {"name": "F", "species": [{"element": "F", "occu": 1}], "xyz": [4.851345, 0.56771, 0.782076], "properties": {}}, {"name": "F", "species": [{"element": "F", "occu": 1}], "xyz": [1.121638, -4.100976, 2.369297], "properties": {}}, {"name": "F", "species": [{"element": "F", "occu": 1}], "xyz": [-0.808505, -3.529016, 1.452633], "properties": {}}, {"name": "F", "species": [{"element": "F", "occu": 1}], "xyz": [6.361033, -1.344183, 1.960562], "properties": {}}, {"name": "F", "species": [{"element": "F", "occu": 1}], "xyz": [4.611727, -0.820201, 3.213927], "properties": {}}, {"name": "F", "species": [{"element": "F", "occu": 1}], "xyz": [0.452224, -5.481611, 0.066554], "properties": {}}, {"name": "F", "species": [{"element": "F", "occu": 1}], "xyz": [0.454447, -3.573108, -1.057348], "properties": {}}, {"name": "O", "species": [{"element": "O", "occu": 1}], "xyz": [2.343274, -1.929519, 1.091481], "properties": {}}, {"name": "C", "species": [{"element": "C", "occu": 1}], "xyz": [2.839826, -0.611478, 0.949855], "properties": {}}, {"name": "C", "species": [{"element": "C", "occu": 1}], "xyz": [0.944642, -1.990119, 1.301281], "properties": {}}, {"name": "C", "species": [{"element": "C", "occu": 1}], "xyz": [4.356042, -0.703239, 0.866578], "properties": {}}, {"name": "C", "species": [{"element": "C", "occu": 1}], "xyz": [0.548037, -3.458777, 1.302127], "properties": {}}, {"name": "C", "species": [{"element": "C", "occu": 1}], "xyz": [5.007269, -1.434979, 2.054519], "properties": {}}, {"name": "C", "species": [{"element": "C", "occu": 1}], "xyz": [0.96866, -4.223855, 0.033871], "properties": {}}, {"name": "H", "species": [{"element": "H", "occu": 1}], "xyz": [2.575419, 0.013257, 1.81339], "properties": {}}, {"name": "H", "species": [{"element": "H", "occu": 1}], "xyz": [2.475077, -0.136953, 0.028004], "properties": {}}, {"name": "H", "species": [{"element": "H", "occu": 1}], "xyz": [0.66049, -1.559, 2.271552], "properties": {}}, {"name": "H", "species": [{"element": "H", "occu": 1}], "xyz": [0.394713, -1.481109, 0.498543], "properties": {}}, {"name": "H", "species": [{"element": "H", "occu": 1}], "xyz": [4.713513, -2.486147, 2.091068], "properties": {}}, {"name": "H", "species": [{"element": "H", "occu": 1}], "xyz": [2.055049, -4.277696, -0.063285], "properties": {}}]}, "smiles": "FC(F)(COCC(F)(F)C(F)F)C(F)F", "inchi": "InChI=1S/C6H6F8O/c7-3(8)5(11,12)1-15-2-6(13,14)4(9)10/h3-4H,1-2H2", "formula_alphabetical": "C6 F8 H6 O1", "chemsys": "C-F-H-O", "energy": -1106.24470911, "esp": {"1": ["F", -0.202971], "2": ["F", -0.195009], "3": ["F", -0.189582], "4": ["F", -0.181792], "5": ["F", -0.205974], "6": ["F", -0.208002], "7": ["F", -0.212227], "8": ["F", -0.216444], "9": ["O", -0.288311], "10": ["C", -0.140312], "11": ["C", -0.127525], "12": ["C", 0.360485], "13": ["C", 0.29821], "14": ["C", 0.360479], "15": ["C", 0.405336], "16": ["H", 0.12112], "17": ["H", 0.165275], "18": ["H", 0.16571], "19": ["H", 0.124524], "20": ["H", 0.088707], "21": ["H", 0.078303]}, "dipole_moment": {"X": -1.108, "Y": 1.5435, "Z": 0.0798, "Tot": 1.9017}, "functional": "B3LYP", "basis": "6-31+G*", "phase": "gas", "tag": "lis", "state": "successful", "wall_time (s)": 12.573929585982114, "version": "0.0.1", "gauss_version": "ES64L-G16RevC.01", "last_updated": "2021-09-09 18:05:40.991000", "polarizability": 81.21, "fluorinated-solvent": "12824699", "run_ids": ["613a49c6151a14e1f12b5258", "613a4b83b2753c9c7e6f8811"]}