{"_id": "61411841356127311f942314", "molecule": {"@module": "pymatgen.core.structure", "@class": "Molecule", "charge": 0, "spin_multiplicity": 1, "sites": [{"name": "F", "species": [{"element": "F", "occu": 1}], "xyz": [4.903011, 3.253487, 1.300172], "properties": {}}, {"name": "F", "species": [{"element": "F", "occu": 1}], "xyz": [4.936702, 1.629772, 2.800185], "properties": {}}, {"name": "F", "species": [{"element": "F", "occu": 1}], "xyz": [6.29413, 0.997282, 0.537479], "properties": {}}, {"name": "F", "species": [{"element": "F", "occu": 1}], "xyz": [4.441882, -0.200705, 0.72713], "properties": {}}, {"name": "O", "species": [{"element": "O", "occu": 1}], "xyz": [2.378712, 2.305026, 0.428704], "properties": {}}, {"name": "C", "species": [{"element": "C", "occu": 1}], "xyz": [0.49425, 2.636734, -1.039232], "properties": {}}, {"name": "C", "species": [{"element": "C", "occu": 1}], "xyz": [0.950792, 2.33478, 0.388578], "properties": {}}, {"name": "C", "species": [{"element": "C", "occu": 1}], "xyz": [2.901282, 2.039721, 1.70828], "properties": {}}, {"name": "C", "species": [{"element": "C", "occu": 1}], "xyz": [4.416809, 2.003086, 1.589738], "properties": {}}, {"name": "C", "species": [{"element": "C", "occu": 1}], "xyz": [0.966378, 4.025274, -1.496239], "properties": {}}, {"name": "C", "species": [{"element": "C", "occu": 1}], "xyz": [0.94258, 1.538147, -2.01494], "properties": {}}, {"name": "C", "species": [{"element": "C", "occu": 1}], "xyz": [4.933884, 1.057241, 0.492169], "properties": {}}, {"name": "H", "species": [{"element": "H", "occu": 1}], "xyz": [-0.605974, 2.638288, -1.001647], "properties": {}}, {"name": "H", "species": [{"element": "H", "occu": 1}], "xyz": [0.556836, 1.360414, 0.722512], "properties": {}}, {"name": "H", "species": [{"element": "H", "occu": 1}], "xyz": [0.583603, 3.108825, 1.082752], "properties": {}}, {"name": "H", "species": [{"element": "H", "occu": 1}], "xyz": [2.561879, 1.06755, 2.094952], "properties": {}}, {"name": "H", "species": [{"element": "H", "occu": 1}], "xyz": [2.640456, 2.824924, 2.434495], "properties": {}}, {"name": "H", "species": [{"element": "H", "occu": 1}], "xyz": [2.060491, 4.070511, -1.527088], "properties": {}}, {"name": "H", "species": [{"element": "H", "occu": 1}], "xyz": [0.586324, 4.253615, -2.498948], "properties": {}}, {"name": "H", "species": [{"element": "H", "occu": 1}], "xyz": [0.615933, 4.81081, -0.814933], "properties": {}}, {"name": "H", "species": [{"element": "H", "occu": 1}], "xyz": [0.59257, 0.549006, -1.693906], "properties": {}}, {"name": "H", "species": [{"element": "H", "occu": 1}], "xyz": [0.547673, 1.727289, -3.019975], "properties": {}}, {"name": "H", "species": [{"element": "H", "occu": 1}], "xyz": [2.035659, 1.503187, -2.08196], "properties": {}}, {"name": "H", "species": [{"element": "H", "occu": 1}], "xyz": [4.616498, 1.384525, -0.499668], "properties": {}}]}, "smiles": "FC(F)(COCC(C)C)C(F)F", "inchi": "InChI=1S/C7H12F4O/c1-5(2)3-12-4-7(10,11)6(8)9/h5-6H,3-4H2,1-2H3", "formula_alphabetical": "C7 F4 H12 O1", "chemsys": "C-F-H-O", "energy": -748.589998248, "esp": {"1": ["F", -0.211732], "2": ["F", -0.199394], "3": ["F", -0.20171], "4": ["F", -0.205076], "5": ["O", -0.234368], "6": ["C", 0.390229], "7": ["C", -0.114443], "8": ["C", -0.180678], "9": ["C", 0.377698], "10": ["C", -0.307108], "11": ["C", -0.377995], "12": ["C", 0.311713], "13": ["H", -0.047894], "14": ["H", 0.077065], "15": ["H", 0.069423], "16": ["H", 0.12079], "17": ["H", 0.157789], "18": ["H", 0.06772], "19": ["H", 0.071765], "20": ["H", 0.069099], "21": ["H", 0.081948], "22": ["H", 0.092547], "23": ["H", 0.091037], "24": ["H", 0.101577]}, "dipole_moment": {"X": -3.9247, "Y": 0.536, "Z": -0.773, "Tot": 4.0359}, "functional": "B3LYP", "basis": "6-31+G*", "phase": "gas", "tag": "lis", "state": "successful", "wall_time (s)": 11.851526767015457, "version": "0.0.1", "gauss_version": "ES64L-G16RevC.01", "last_updated": "2021-09-14 21:46:41.468000", "polarizability": 90.59, "fluorinated-solvent": "90992962", "run_ids": ["6141181f81bd8b2766aed27c", "61411837d36f7042c0e230d2"]}