{"_id": "61412c8e98e8ad521017f706", "molecule": {"@module": "pymatgen.core.structure", "@class": "Molecule", "charge": 0, "spin_multiplicity": 1, "sites": [{"name": "F", "species": [{"element": "F", "occu": 1}], "xyz": [1.969263, 0.802699, 3.280061], "properties": {}}, {"name": "F", "species": [{"element": "F", "occu": 1}], "xyz": [0.898162, -0.123321, 1.612165], "properties": {}}, {"name": "F", "species": [{"element": "F", "occu": 1}], "xyz": [2.188305, -1.892115, 3.333031], "properties": {}}, {"name": "F", "species": [{"element": "F", "occu": 1}], "xyz": [3.921226, -3.083069, 1.362185], "properties": {}}, {"name": "O", "species": [{"element": "O", "occu": 1}], "xyz": [2.889, 0.865039, 1.220361], "properties": {}}, {"name": "C", "species": [{"element": "C", "occu": 1}], "xyz": [3.086288, 2.701979, -0.336447], "properties": {}}, {"name": "C", "species": [{"element": "C", "occu": 1}], "xyz": [2.40827, 2.21329, 0.936435], "properties": {}}, {"name": "C", "species": [{"element": "C", "occu": 1}], "xyz": [2.492949, 2.165257, -1.650215], "properties": {}}, {"name": "C", "species": [{"element": "C", "occu": 1}], "xyz": [2.171116, 0.13186, 2.09714], "properties": {}}, {"name": "C", "species": [{"element": "C", "occu": 1}], "xyz": [2.900685, -1.190369, 2.366397], "properties": {}}, {"name": "C", "species": [{"element": "C", "occu": 1}], "xyz": [3.027347, -2.036352, 1.11292], "properties": {}}, {"name": "C", "species": [{"element": "C", "occu": 1}], "xyz": [2.582295, 0.644535, -1.83418], "properties": {}}, {"name": "H", "species": [{"element": "H", "occu": 1}], "xyz": [3.014126, 3.798232, -0.337751], "properties": {}}, {"name": "H", "species": [{"element": "H", "occu": 1}], "xyz": [4.156112, 2.460278, -0.272242], "properties": {}}, {"name": "H", "species": [{"element": "H", "occu": 1}], "xyz": [1.318558, 2.186243, 0.827502], "properties": {}}, {"name": "H", "species": [{"element": "H", "occu": 1}], "xyz": [2.66491, 2.840406, 1.795743], "properties": {}}, {"name": "H", "species": [{"element": "H", "occu": 1}], "xyz": [1.441, 2.478754, -1.718846], "properties": {}}, {"name": "H", "species": [{"element": "H", "occu": 1}], "xyz": [3.012705, 2.659803, -2.481923], "properties": {}}, {"name": "H", "species": [{"element": "H", "occu": 1}], "xyz": [3.888712, -0.959255, 2.776498], "properties": {}}, {"name": "H", "species": [{"element": "H", "occu": 1}], "xyz": [2.059129, -2.47089, 0.848351], "properties": {}}, {"name": "H", "species": [{"element": "H", "occu": 1}], "xyz": [3.42112, -1.441446, 0.284762], "properties": {}}, {"name": "H", "species": [{"element": "H", "occu": 1}], "xyz": [1.967887, 0.115365, -1.099364], "properties": {}}, {"name": "H", "species": [{"element": "H", "occu": 1}], "xyz": [2.23573, 0.354593, -2.833095], "properties": {}}, {"name": "H", "species": [{"element": "H", "occu": 1}], "xyz": [3.616212, 0.294305, -1.720718], "properties": {}}]}, "smiles": "FC(F)(OCCCC)[C@@H](F)CF", "inchi": "InChI=1S/C7H12F4O/c1-2-3-4-12-7(10,11)6(9)5-8/h6H,2-5H2,1H3/t6-/m0/s1", "formula_alphabetical": "C7 F4 H12 O1", "chemsys": "C-F-H-O", "energy": -748.596196747, "esp": {"1": ["F", -0.192697], "2": ["F", -0.192796], "3": ["F", -0.227309], "4": ["F", -0.274341], "5": ["O", -0.36616], "6": ["C", -0.136778], "7": ["C", 0.126832], "8": ["C", 0.179298], "9": ["C", 0.38142], "10": ["C", 0.125474], "11": ["C", 0.176314], "12": ["C", -0.222704], "13": ["H", 0.029744], "14": ["H", 0.06876], "15": ["H", 0.075084], "16": ["H", 0.069233], "17": ["H", -0.017159], "18": ["H", -0.021064], "19": ["H", 0.124605], "20": ["H", 0.085056], "21": ["H", 0.049584], "22": ["H", 0.045673], "23": ["H", 0.048614], "24": ["H", 0.065318]}, "dipole_moment": {"X": 0.6342, "Y": 3.405, "Z": -2.7789, "Tot": 4.4406}, "functional": "B3LYP", "basis": "6-31+G*", "phase": "gas", "tag": "lis", "state": "successful", "wall_time (s)": 12.025529055972584, "version": "0.0.1", "gauss_version": "ES64L-G16RevC.01", "last_updated": "2021-09-14 23:13:18.195000", "polarizability": 89.41, "fluorinated-solvent": "58805544", "run_ids": ["61412c72cfce3b67a29bd063", "61412c86c3e122bf1378653a"]}