{"_id": "613a4b8b018d8fcb638db342", "molecule": {"@module": "pymatgen.core.structure", "@class": "Molecule", "charge": 0, "spin_multiplicity": 1, "sites": [{"name": "F", "species": [{"element": "F", "occu": 1}], "xyz": [1.001923, 0.047073, 0.317222], "properties": {}}, {"name": "F", "species": [{"element": "F", "occu": 1}], "xyz": [2.420274, -1.459828, -0.387182], "properties": {}}, {"name": "F", "species": [{"element": "F", "occu": 1}], "xyz": [2.631667, -0.945678, 2.330628], "properties": {}}, {"name": "O", "species": [{"element": "O", "occu": 1}], "xyz": [2.853363, 0.721667, -0.789917], "properties": {}}, {"name": "C", "species": [{"element": "C", "occu": 1}], "xyz": [2.34659, -0.168464, 0.093881], "properties": {}}, {"name": "C", "species": [{"element": "C", "occu": 1}], "xyz": [2.24056, 0.761491, -2.109192], "properties": {}}, {"name": "C", "species": [{"element": "C", "occu": 1}], "xyz": [3.125321, -0.045149, 1.398129], "properties": {}}, {"name": "C", "species": [{"element": "C", "occu": 1}], "xyz": [2.972534, 1.823781, -2.906282], "properties": {}}, {"name": "H", "species": [{"element": "H", "occu": 1}], "xyz": [2.335884, -0.228057, -2.567739], "properties": {}}, {"name": "H", "species": [{"element": "H", "occu": 1}], "xyz": [1.178537, 1.000625, -1.993087], "properties": {}}, {"name": "H", "species": [{"element": "H", "occu": 1}], "xyz": [4.177857, -0.271405, 1.207828], "properties": {}}, {"name": "H", "species": [{"element": "H", "occu": 1}], "xyz": [3.009686, 0.96969, 1.787962], "properties": {}}, {"name": "H", "species": [{"element": "H", "occu": 1}], "xyz": [4.035634, 1.577413, -2.99741], "properties": {}}, {"name": "H", "species": [{"element": "H", "occu": 1}], "xyz": [2.543538, 1.890392, -3.912632], "properties": {}}, {"name": "H", "species": [{"element": "H", "occu": 1}], "xyz": [2.881363, 2.80282, -2.424251], "properties": {}}]}, "smiles": "FC(F)(OCC)CF", "inchi": "InChI=1S/C4H7F3O/c1-2-8-4(6,7)3-5/h2-3H2,1H3", "formula_alphabetical": "C4 F3 H7 O1", "chemsys": "C-F-H-O", "energy": -531.416875112, "esp": {"1": ["F", -0.230975], "2": ["F", -0.233123], "3": ["F", -0.244284], "4": ["O", -0.496312], "5": ["C", 0.555673], "6": ["C", 0.426375], "7": ["C", 0.096557], "8": ["C", -0.353733], "9": ["H", -0.001125], "10": ["H", -0.003236], "11": ["H", 0.093125], "12": ["H", 0.092196], "13": ["H", 0.108592], "14": ["H", 0.081154], "15": ["H", 0.109118]}, "dipole_moment": {"X": 1.3104, "Y": 2.2776, "Z": -2.2337, "Tot": 3.4488}, "functional": "B3LYP", "basis": "6-31+G*", "phase": "gas", "tag": "lis", "state": "successful", "wall_time (s)": 12.787721573957242, "version": "0.0.1", "gauss_version": "ES64L-G16RevC.01", "last_updated": "2021-09-09 17:59:39.184000", "polarizability": 54.89, "fluorinated-solvent": "22464433", "run_ids": ["613a48f96257862ea0967f43", "613a4b2252457d9162fade4e"]}