{"_id": "6141139f5667ed8c8aeacbcc", "molecule": {"@module": "pymatgen.core.structure", "@class": "Molecule", "charge": 0, "spin_multiplicity": 1, "sites": [{"name": "F", "species": [{"element": "F", "occu": 1}], "xyz": [4.2836, 0.236576, -2.663693], "properties": {}}, {"name": "F", "species": [{"element": "F", "occu": 1}], "xyz": [4.601096, 1.263591, -0.739308], "properties": {}}, {"name": "F", "species": [{"element": "F", "occu": 1}], "xyz": [-0.01882, 0.656645, -2.173466], "properties": {}}, {"name": "F", "species": [{"element": "F", "occu": 1}], "xyz": [0.287531, 1.668561, -0.264418], "properties": {}}, {"name": "F", "species": [{"element": "F", "occu": 1}], "xyz": [5.976761, -1.090816, -0.97255], "properties": {}}, {"name": "F", "species": [{"element": "F", "occu": 1}], "xyz": [4.435041, -1.164149, 0.572756], "properties": {}}, {"name": "F", "species": [{"element": "F", "occu": 1}], "xyz": [4.119847, -2.18226, -1.334305], "properties": {}}, {"name": "F", "species": [{"element": "F", "occu": 1}], "xyz": [-1.869775, 2.589229, -2.898603], "properties": {}}, {"name": "F", "species": [{"element": "F", "occu": 1}], "xyz": [-1.562764, 3.601317, -0.992028], "properties": {}}, {"name": "F", "species": [{"element": "F", "occu": 1}], "xyz": [-1.166497, 4.654035, -2.861286], "properties": {}}, {"name": "O", "species": [{"element": "O", "occu": 1}], "xyz": [2.028191, 1.450401, -1.675391], "properties": {}}, {"name": "C", "species": [{"element": "C", "occu": 1}], "xyz": [2.494551, 0.227075, -1.101035], "properties": {}}, {"name": "C", "species": [{"element": "C", "occu": 1}], "xyz": [3.998605, 0.193989, -1.331513], "properties": {}}, {"name": "C", "species": [{"element": "C", "occu": 1}], "xyz": [0.686111, 1.678955, -1.581185], "properties": {}}, {"name": "C", "species": [{"element": "C", "occu": 1}], "xyz": [0.390076, 3.016707, -2.242772], "properties": {}}, {"name": "C", "species": [{"element": "C", "occu": 1}], "xyz": [4.657434, -1.08892, -0.755508], "properties": {}}, {"name": "C", "species": [{"element": "C", "occu": 1}], "xyz": [-1.066774, 3.450815, -2.238647], "properties": {}}, {"name": "H", "species": [{"element": "H", "occu": 1}], "xyz": [2.034365, -0.634162, -1.593338], "properties": {}}, {"name": "H", "species": [{"element": "H", "occu": 1}], "xyz": [2.292679, 0.200063, -0.026609], "properties": {}}, {"name": "H", "species": [{"element": "H", "occu": 1}], "xyz": [0.972342, 3.785071, -1.729544], "properties": {}}, {"name": "H", "species": [{"element": "H", "occu": 1}], "xyz": [0.722797, 2.962286, -3.281599], "properties": {}}]}, "smiles": "FC(F)(COC(F)(F)CC(F)(F)F)C(F)(F)F", "inchi": "InChI=1S/C6H4F10O/c7-3(8,6(14,15)16)2-17-5(12,13)1-4(9,10)11/h1-2H2", "formula_alphabetical": "C6 F10 H4 O1", "chemsys": "C-F-H-O", "energy": -1304.77035898, "esp": {"1": ["F", -0.154786], "2": ["F", -0.156434], "3": ["F", -0.210852], "4": ["F", -0.211035], "5": ["F", -0.117605], "6": ["F", -0.145914], "7": ["F", -0.147425], "8": ["F", -0.223192], "9": ["F", -0.221985], "10": ["F", -0.242287], "11": ["O", -0.2901], "12": ["C", -0.007871], "13": ["C", 0.264536], "14": ["C", 0.588845], "15": ["C", -0.513079], "16": ["C", 0.393802], "17": ["C", 0.757066], "18": ["H", 0.118841], "19": ["H", 0.11878], "20": ["H", 0.200358], "21": ["H", 0.200335]}, "dipole_moment": {"X": 0.9037, "Y": -0.275, "Z": 0.0087, "Tot": 0.9446}, "functional": "B3LYP", "basis": "6-31+G*", "phase": "gas", "tag": "lis", "state": "successful", "wall_time (s)": 14.078298522043042, "version": "0.0.1", "gauss_version": "ES64L-G16RevC.01", "last_updated": "2021-09-14 21:26:55.327000", "polarizability": 83.18, "fluorinated-solvent": "88878001", "run_ids": ["614112e71e39addbe94b9181", "6141134124c8e02b344cafc7"]}