{"_id": "613a57bb09a72a796e0ba388", "molecule": {"@module": "pymatgen.core.structure", "@class": "Molecule", "charge": 0, "spin_multiplicity": 1, "sites": [{"name": "F", "species": [{"element": "F", "occu": 1}], "xyz": [2.992922, 3.047712, 1.250216], "properties": {}}, {"name": "F", "species": [{"element": "F", "occu": 1}], "xyz": [1.169769, 1.847164, 1.38228], "properties": {}}, {"name": "F", "species": [{"element": "F", "occu": 1}], "xyz": [2.905172, 1.446306, 3.459374], "properties": {}}, {"name": "F", "species": [{"element": "F", "occu": 1}], "xyz": [2.675445, -0.343956, 2.233569], "properties": {}}, {"name": "F", "species": [{"element": "F", "occu": 1}], "xyz": [4.498276, 0.85036, 2.092388], "properties": {}}, {"name": "O", "species": [{"element": "O", "occu": 1}], "xyz": [2.793115, 1.216383, -0.054842], "properties": {}}, {"name": "C", "species": [{"element": "C", "occu": 1}], "xyz": [2.238931, 1.876911, -1.234465], "properties": {}}, {"name": "C", "species": [{"element": "C", "occu": 1}], "xyz": [2.809165, 1.171459, -2.453614], "properties": {}}, {"name": "C", "species": [{"element": "C", "occu": 1}], "xyz": [2.51791, 1.763942, 1.133088], "properties": {}}, {"name": "C", "species": [{"element": "C", "occu": 1}], "xyz": [3.165599, 0.906885, 2.257044], "properties": {}}, {"name": "C", "species": [{"element": "C", "occu": 1}], "xyz": [4.330414, 1.309977, -2.578848], "properties": {}}, {"name": "H", "species": [{"element": "H", "occu": 1}], "xyz": [1.148423, 1.796785, -1.188067], "properties": {}}, {"name": "H", "species": [{"element": "H", "occu": 1}], "xyz": [2.529341, 2.932828, -1.207948], "properties": {}}, {"name": "H", "species": [{"element": "H", "occu": 1}], "xyz": [2.523098, 0.112746, -2.412738], "properties": {}}, {"name": "H", "species": [{"element": "H", "occu": 1}], "xyz": [2.313428, 1.600593, -3.335011], "properties": {}}, {"name": "H", "species": [{"element": "H", "occu": 1}], "xyz": [4.836131, 0.871901, -1.712275], "properties": {}}, {"name": "H", "species": [{"element": "H", "occu": 1}], "xyz": [4.694704, 0.801638, -3.478474], "properties": {}}, {"name": "H", "species": [{"element": "H", "occu": 1}], "xyz": [4.625786, 2.364925, -2.644783], "properties": {}}]}, "smiles": "FC(F)(OCCC)C(F)(F)F", "inchi": "InChI=1S/C5H7F5O/c1-2-3-11-5(9,10)4(6,7)8/h2-3H2,1H3", "formula_alphabetical": "C5 F5 H7 O1", "chemsys": "C-F-H-O", "energy": -769.225836732, "esp": {"1": ["F", -0.169405], "2": ["F", -0.163327], "3": ["F", -0.148717], "4": ["F", -0.157162], "5": ["F", -0.151403], "6": ["O", -0.252352], "7": ["C", 0.015265], "8": ["C", 0.0395], "9": ["C", 0.299512], "10": ["C", 0.463665], "11": ["C", -0.167029], "12": ["H", 0.079808], "13": ["H", 0.10286], "14": ["H", 0.037539], "15": ["H", 0.017053], "16": ["H", 0.051325], "17": ["H", 0.051698], "18": ["H", 0.051169]}, "dipole_moment": {"X": -0.3851, "Y": 0.3145, "Z": -3.2189, "Tot": 3.2571}, "functional": "B3LYP", "basis": "6-31+G*", "phase": "gas", "tag": "lis", "state": "successful", "wall_time (s)": 8.64028218796011, "version": "0.0.1", "gauss_version": "ES64L-G16RevC.01", "last_updated": "2021-09-09 18:51:39.449000", "polarizability": 68.38, "fluorinated-solvent": "22007978", "run_ids": ["613a4b03ce3239829626d078", "613a57b44439d1fa14e84118"]}