{"_id": "613a4e3ad2e9af694a1cefa1", "molecule": {"@module": "pymatgen.core.structure", "@class": "Molecule", "charge": 0, "spin_multiplicity": 1, "sites": [{"name": "F", "species": [{"element": "F", "occu": 1}], "xyz": [3.040095, 0.313462, 1.541518], "properties": {}}, {"name": "F", "species": [{"element": "F", "occu": 1}], "xyz": [1.504921, 0.557217, 0.010599], "properties": {}}, {"name": "F", "species": [{"element": "F", "occu": 1}], "xyz": [3.57583, 1.077304, -0.433304], "properties": {}}, {"name": "O", "species": [{"element": "O", "occu": 1}], "xyz": [0.642717, -2.611992, -1.163539], "properties": {}}, {"name": "C", "species": [{"element": "C", "occu": 1}], "xyz": [2.33793, -2.341991, 0.497056], "properties": {}}, {"name": "C", "species": [{"element": "C", "occu": 1}], "xyz": [3.072562, -1.234266, -0.275529], "properties": {}}, {"name": "C", "species": [{"element": "C", "occu": 1}], "xyz": [0.837185, -2.415767, 0.229883], "properties": {}}, {"name": "C", "species": [{"element": "C", "occu": 1}], "xyz": [2.794038, 0.170439, 0.209868], "properties": {}}, {"name": "C", "species": [{"element": "C", "occu": 1}], "xyz": [-0.72283, -2.622844, -1.540686], "properties": {}}, {"name": "H", "species": [{"element": "H", "occu": 1}], "xyz": [2.78462, -3.299303, 0.203815], "properties": {}}, {"name": "H", "species": [{"element": "H", "occu": 1}], "xyz": [2.504247, -2.225125, 1.574632], "properties": {}}, {"name": "H", "species": [{"element": "H", "occu": 1}], "xyz": [2.809299, -1.270829, -1.336509], "properties": {}}, {"name": "H", "species": [{"element": "H", "occu": 1}], "xyz": [4.155515, -1.372378, -0.190445], "properties": {}}, {"name": "H", "species": [{"element": "H", "occu": 1}], "xyz": [0.402968, -3.257813, 0.795433], "properties": {}}, {"name": "H", "species": [{"element": "H", "occu": 1}], "xyz": [0.329618, -1.495577, 0.556469], "properties": {}}, {"name": "H", "species": [{"element": "H", "occu": 1}], "xyz": [-1.270886, -3.438519, -1.041641], "properties": {}}, {"name": "H", "species": [{"element": "H", "occu": 1}], "xyz": [-1.212374, -1.666258, -1.29824], "properties": {}}, {"name": "H", "species": [{"element": "H", "occu": 1}], "xyz": [-0.755198, -2.779189, -2.62203], "properties": {}}]}, "smiles": "FC(F)(F)CCCOC", "inchi": "InChI=1S/C5H9F3O/c1-9-4-2-3-5(6,7)8/h2-4H2,1H3", "formula_alphabetical": "C5 F3 H9 O1", "chemsys": "C-F-H-O", "energy": -570.731165123, "esp": {"1": ["F", -0.223656], "2": ["F", -0.190625], "3": ["F", -0.240874], "4": ["O", -0.307834], "5": ["C", -0.179918], "6": ["C", -0.056188], "7": ["C", 0.10173], "8": ["C", 0.579867], "9": ["C", -0.12343], "10": ["H", 0.086597], "11": ["H", 0.071053], "12": ["H", 0.057676], "13": ["H", 0.070525], "14": ["H", 0.053401], "15": ["H", 0.038244], "16": ["H", 0.072229], "17": ["H", 0.08362], "18": ["H", 0.107583]}, "dipole_moment": {"X": -0.8387, "Y": -2.3561, "Z": 0.0615, "Tot": 2.5016}, "functional": "B3LYP", "basis": "6-31+G*", "phase": "gas", "tag": "lis", "state": "successful", "wall_time (s)": 7.36776856193319, "version": "0.0.1", "gauss_version": "ES64L-G16RevC.01", "last_updated": "2021-09-09 18:11:05.054000", "polarizability": 66.36, "fluorinated-solvent": "21130196", "run_ids": ["613a4a284fd06498fe3fff99", "613a4e2be08a31bf09877a6f"]}