{"_id": "61412b821da7058512578fde", "molecule": {"@module": "pymatgen.core.structure", "@class": "Molecule", "charge": 0, "spin_multiplicity": 1, "sites": [{"name": "F", "species": [{"element": "F", "occu": 1}], "xyz": [0.837687, -0.020745, -0.008672], "properties": {}}, {"name": "F", "species": [{"element": "F", "occu": 1}], "xyz": [2.41106, -1.580602, -0.149032], "properties": {}}, {"name": "O", "species": [{"element": "O", "occu": 1}], "xyz": [4.267237, 2.457585, -0.670395], "properties": {}}, {"name": "C", "species": [{"element": "C", "occu": 1}], "xyz": [2.269989, 1.778551, -1.811383], "properties": {}}, {"name": "C", "species": [{"element": "C", "occu": 1}], "xyz": [2.595012, 0.293301, -1.584372], "properties": {}}, {"name": "C", "species": [{"element": "C", "occu": 1}], "xyz": [2.87431, 2.718178, -0.771192], "properties": {}}, {"name": "C", "species": [{"element": "C", "occu": 1}], "xyz": [2.192154, -0.21947, -0.221788], "properties": {}}, {"name": "C", "species": [{"element": "C", "occu": 1}], "xyz": [4.928677, 3.303474, 0.25373], "properties": {}}, {"name": "H", "species": [{"element": "H", "occu": 1}], "xyz": [2.641451, 2.061282, -2.803508], "properties": {}}, {"name": "H", "species": [{"element": "H", "occu": 1}], "xyz": [1.183401, 1.926929, -1.816093], "properties": {}}, {"name": "H", "species": [{"element": "H", "occu": 1}], "xyz": [3.671725, 0.125152, -1.688321], "properties": {}}, {"name": "H", "species": [{"element": "H", "occu": 1}], "xyz": [2.082134, -0.32344, -2.331671], "properties": {}}, {"name": "H", "species": [{"element": "H", "occu": 1}], "xyz": [2.702447, 3.766473, -1.068095], "properties": {}}, {"name": "H", "species": [{"element": "H", "occu": 1}], "xyz": [2.394847, 2.577488, 0.21347], "properties": {}}, {"name": "H", "species": [{"element": "H", "occu": 1}], "xyz": [2.721593, 0.23815, 0.618574], "properties": {}}, {"name": "H", "species": [{"element": "H", "occu": 1}], "xyz": [4.846342, 4.361994, -0.041027], "properties": {}}, {"name": "H", "species": [{"element": "H", "occu": 1}], "xyz": [4.517794, 3.187509, 1.269983], "properties": {}}, {"name": "H", "species": [{"element": "H", "occu": 1}], "xyz": [5.982328, 3.012881, 0.257653], "properties": {}}]}, "smiles": "FC(F)CCCOC", "inchi": "InChI=1S/C5H10F2O/c1-8-4-2-3-5(6)7/h5H,2-4H2,1H3", "formula_alphabetical": "C5 F2 H10 O1", "chemsys": "C-F-H-O", "energy": -471.474542918, "esp": {"1": ["F", -0.255112], "2": ["F", -0.273925], "3": ["O", -0.304414], "4": ["C", -0.250131], "5": ["C", -0.009154], "6": ["C", 0.149725], "7": ["C", 0.372491], "8": ["C", -0.142031], "9": ["H", 0.100349], "10": ["H", 0.081974], "11": ["H", 0.019275], "12": ["H", 0.079271], "13": ["H", 0.044468], "14": ["H", 0.018405], "15": ["H", 0.097056], "16": ["H", 0.081929], "17": ["H", 0.07779], "18": ["H", 0.112033]}, "dipole_moment": {"X": 1.101, "Y": 2.9153, "Z": -0.1572, "Tot": 3.1202}, "functional": "B3LYP", "basis": "6-31+G*", "phase": "gas", "tag": "lis", "state": "successful", "wall_time (s)": 6.6183025350328535, "version": "0.0.1", "gauss_version": "ES64L-G16RevC.01", "last_updated": "2021-09-14 23:08:50.273000", "polarizability": 65.58, "fluorinated-solvent": "88323521", "run_ids": ["61412b6ca72f7c3ea28eb51b", "61412b7951aa31816305ecb7"]}