{"_id": "613a531d7738ccf92492d316", "molecule": {"@module": "pymatgen.core.structure", "@class": "Molecule", "charge": 0, "spin_multiplicity": 1, "sites": [{"name": "F", "species": [{"element": "F", "occu": 1}], "xyz": [1.040403, 0.151524, 0.064496], "properties": {}}, {"name": "F", "species": [{"element": "F", "occu": 1}], "xyz": [2.783293, 1.357414, 0.616246], "properties": {}}, {"name": "O", "species": [{"element": "O", "occu": 1}], "xyz": [2.925508, -0.893192, 0.7394], "properties": {}}, {"name": "C", "species": [{"element": "C", "occu": 1}], "xyz": [2.919765, 0.098777, -1.410279], "properties": {}}, {"name": "C", "species": [{"element": "C", "occu": 1}], "xyz": [2.432182, 0.147127, 0.024112], "properties": {}}, {"name": "C", "species": [{"element": "C", "occu": 1}], "xyz": [2.54042, -0.975276, 2.13601], "properties": {}}, {"name": "C", "species": [{"element": "C", "occu": 1}], "xyz": [2.391662, 1.252835, -2.26636], "properties": {}}, {"name": "C", "species": [{"element": "C", "occu": 1}], "xyz": [3.211564, -2.209351, 2.709457], "properties": {}}, {"name": "H", "species": [{"element": "H", "occu": 1}], "xyz": [4.014316, 0.103245, -1.37179], "properties": {}}, {"name": "H", "species": [{"element": "H", "occu": 1}], "xyz": [2.609267, -0.869716, -1.816671], "properties": {}}, {"name": "H", "species": [{"element": "H", "occu": 1}], "xyz": [2.867941, -0.063644, 2.64683], "properties": {}}, {"name": "H", "species": [{"element": "H", "occu": 1}], "xyz": [1.449213, -1.043754, 2.198051], "properties": {}}, {"name": "H", "species": [{"element": "H", "occu": 1}], "xyz": [2.70862, 2.219825, -1.862925], "properties": {}}, {"name": "H", "species": [{"element": "H", "occu": 1}], "xyz": [2.775636, 1.166083, -3.288433], "properties": {}}, {"name": "H", "species": [{"element": "H", "occu": 1}], "xyz": [1.297913, 1.242665, -2.309961], "properties": {}}, {"name": "H", "species": [{"element": "H", "occu": 1}], "xyz": [4.300885, -2.132367, 2.62612], "properties": {}}, {"name": "H", "species": [{"element": "H", "occu": 1}], "xyz": [2.950056, -2.315647, 3.768662], "properties": {}}, {"name": "H", "species": [{"element": "H", "occu": 1}], "xyz": [2.885516, -3.110088, 2.178556], "properties": {}}]}, "smiles": "FC(F)(OCC)CC", "inchi": "InChI=1S/C5H10F2O/c1-3-5(6,7)8-4-2/h3-4H2,1-2H3", "formula_alphabetical": "C5 F2 H10 O1", "chemsys": "C-F-H-O", "energy": -471.502413292, "esp": {"1": ["F", -0.261642], "2": ["F", -0.262344], "3": ["O", -0.50599], "4": ["C", 0.017903], "5": ["C", 0.590483], "6": ["C", 0.456151], "7": ["C", -0.214352], "8": ["C", -0.341152], "9": ["H", 0.041339], "10": ["H", 0.041807], "11": ["H", -0.017335], "12": ["H", -0.017052], "13": ["H", 0.065923], "14": ["H", 0.06555], "15": ["H", 0.06537], "16": ["H", 0.101767], "17": ["H", 0.071147], "18": ["H", 0.102428]}, "dipole_moment": {"X": 0.7133, "Y": -1.0885, "Z": 0.1262, "Tot": 1.3075}, "functional": "B3LYP", "basis": "6-31+G*", "phase": "gas", "tag": "lis", "state": "successful", "wall_time (s)": 7.096654816996306, "version": "0.0.1", "gauss_version": "ES64L-G16RevC.01", "last_updated": "2021-09-09 18:31:57.629000", "polarizability": 65.75, "fluorinated-solvent": "53936487", "run_ids": ["613a48ca970afddab98111c1", "613a5317c63388090bafa502"]}