{"_id": "6141258c5526cb3bf4801c88", "molecule": {"@module": "pymatgen.core.structure", "@class": "Molecule", "charge": 0, "spin_multiplicity": 1, "sites": [{"name": "F", "species": [{"element": "F", "occu": 1}], "xyz": [0.928508, -0.041976, 0.295471], "properties": {}}, {"name": "F", "species": [{"element": "F", "occu": 1}], "xyz": [2.285145, -0.471578, -1.364057], "properties": {}}, {"name": "F", "species": [{"element": "F", "occu": 1}], "xyz": [3.221285, 2.011221, -2.028011], "properties": {}}, {"name": "F", "species": [{"element": "F", "occu": 1}], "xyz": [1.168819, 2.171375, -1.292719], "properties": {}}, {"name": "O", "species": [{"element": "O", "occu": 1}], "xyz": [2.761457, 1.249737, 0.045498], "properties": {}}, {"name": "C", "species": [{"element": "C", "occu": 1}], "xyz": [2.254582, -0.04221, -0.064579], "properties": {}}, {"name": "C", "species": [{"element": "C", "occu": 1}], "xyz": [2.47708, 2.236042, -0.894994], "properties": {}}, {"name": "C", "species": [{"element": "C", "occu": 1}], "xyz": [3.054491, -0.964057, 0.834735], "properties": {}}, {"name": "C", "species": [{"element": "C", "occu": 1}], "xyz": [2.801327, 3.592466, -0.300525], "properties": {}}, {"name": "C", "species": [{"element": "C", "occu": 1}], "xyz": [2.531614, -2.403124, 0.821496], "properties": {}}, {"name": "C", "species": [{"element": "C", "occu": 1}], "xyz": [2.571843, 4.740595, -1.287255], "properties": {}}, {"name": "H", "species": [{"element": "H", "occu": 1}], "xyz": [4.093726, -0.916082, 0.492733], "properties": {}}, {"name": "H", "species": [{"element": "H", "occu": 1}], "xyz": [3.017575, -0.537998, 1.842974], "properties": {}}, {"name": "H", "species": [{"element": "H", "occu": 1}], "xyz": [2.175943, 3.704547, 0.591444], "properties": {}}, {"name": "H", "species": [{"element": "H", "occu": 1}], "xyz": [3.845042, 3.555629, 0.029228], "properties": {}}, {"name": "H", "species": [{"element": "H", "occu": 1}], "xyz": [2.570694, -2.827451, -0.186847], "properties": {}}, {"name": "H", "species": [{"element": "H", "occu": 1}], "xyz": [3.14575, -3.027531, 1.478692], "properties": {}}, {"name": "H", "species": [{"element": "H", "occu": 1}], "xyz": [1.496432, -2.450388, 1.173749], "properties": {}}, {"name": "H", "species": [{"element": "H", "occu": 1}], "xyz": [1.527816, 4.776391, -1.614463], "properties": {}}, {"name": "H", "species": [{"element": "H", "occu": 1}], "xyz": [2.812525, 5.695514, -0.808557], "properties": {}}, {"name": "H", "species": [{"element": "H", "occu": 1}], "xyz": [3.205505, 4.632487, -2.173084], "properties": {}}]}, "smiles": "FC(F)(OC(F)(F)CC)CC", "inchi": "InChI=1S/C6H10F4O/c1-3-5(7,8)11-6(9,10)4-2/h3-4H2,1-2H3", "formula_alphabetical": "C6 F4 H10 O1", "chemsys": "C-F-H-O", "energy": -709.315323706, "esp": {"1": ["F", -0.268798], "2": ["F", -0.260703], "3": ["F", -0.260314], "4": ["F", -0.252054], "5": ["O", -0.648531], "6": ["C", 0.808729], "7": ["C", 0.763258], "8": ["C", -0.032813], "9": ["C", -0.019055], "10": ["C", -0.345499], "11": ["C", -0.290725], "12": ["H", 0.06409], "13": ["H", 0.06487], "14": ["H", 0.061011], "15": ["H", 0.057514], "16": ["H", 0.097948], "17": ["H", 0.106941], "18": ["H", 0.096577], "19": ["H", 0.082773], "20": ["H", 0.090868], "21": ["H", 0.083912]}, "dipole_moment": {"X": 1.7424, "Y": 0.6735, "Z": 2.3152, "Tot": 2.9749}, "functional": "B3LYP", "basis": "6-31+G*", "phase": "gas", "tag": "lis", "state": "successful", "wall_time (s)": 10.148586067021824, "version": "0.0.1", "gauss_version": "ES64L-G16RevC.01", "last_updated": "2021-09-14 22:43:24.557000", "polarizability": 78.51, "fluorinated-solvent": "59628160", "run_ids": ["614125768a8fe56842153f3b", "6141258617f47c3e18dd2164"]}