{"_id": "61412bbec0d042aad283e6e9", "molecule": {"@module": "pymatgen.core.structure", "@class": "Molecule", "charge": 0, "spin_multiplicity": 1, "sites": [{"name": "F", "species": [{"element": "F", "occu": 1}], "xyz": [1.332115, -0.313201, 0.66706], "properties": {}}, {"name": "F", "species": [{"element": "F", "occu": 1}], "xyz": [2.02344, -0.21058, -1.397129], "properties": {}}, {"name": "F", "species": [{"element": "F", "occu": 1}], "xyz": [1.791315, 2.493411, 1.321652], "properties": {}}, {"name": "F", "species": [{"element": "F", "occu": 1}], "xyz": [3.322952, -3.716722, 1.818558], "properties": {}}, {"name": "O", "species": [{"element": "O", "occu": 1}], "xyz": [3.093493, 1.01884, 0.158565], "properties": {}}, {"name": "O", "species": [{"element": "O", "occu": 1}], "xyz": [2.874157, -2.57093, -0.111692], "properties": {}}, {"name": "C", "species": [{"element": "C", "occu": 1}], "xyz": [2.467811, -0.175166, -0.097342], "properties": {}}, {"name": "C", "species": [{"element": "C", "occu": 1}], "xyz": [3.451715, -1.307861, 0.176645], "properties": {}}, {"name": "C", "species": [{"element": "C", "occu": 1}], "xyz": [2.315146, 2.190222, 0.077551], "properties": {}}, {"name": "C", "species": [{"element": "C", "occu": 1}], "xyz": [2.315013, -3.237335, 0.966337], "properties": {}}, {"name": "H", "species": [{"element": "H", "occu": 1}], "xyz": [4.309916, -1.177247, -0.486048], "properties": {}}, {"name": "H", "species": [{"element": "H", "occu": 1}], "xyz": [3.789054, -1.234113, 1.21543], "properties": {}}, {"name": "H", "species": [{"element": "H", "occu": 1}], "xyz": [2.996327, 2.993014, -0.206321], "properties": {}}, {"name": "H", "species": [{"element": "H", "occu": 1}], "xyz": [1.484184, 2.072303, -0.621841], "properties": {}}, {"name": "H", "species": [{"element": "H", "occu": 1}], "xyz": [1.67437, -2.594798, 1.578993], "properties": {}}, {"name": "H", "species": [{"element": "H", "occu": 1}], "xyz": [1.78211, -4.099774, 0.56344], "properties": {}}]}, "smiles": "FC(F)(OCF)COCF", "inchi": "InChI=1S/C4H6F4O2/c5-2-9-1-4(7,8)10-3-6/h1-3H2", "formula_alphabetical": "C4 F4 H6 O2", "chemsys": "C-F-H-O", "energy": -705.873424622, "esp": {"1": ["F", -0.179895], "2": ["F", -0.21735], "3": ["F", -0.258359], "4": ["F", -0.276946], "5": ["O", -0.406833], "6": ["O", -0.356253], "7": ["C", 0.505245], "8": ["C", -0.010299], "9": ["C", 0.360703], "10": ["C", 0.311091], "11": ["H", 0.12788], "12": ["H", 0.132969], "13": ["H", 0.076938], "14": ["H", 0.061073], "15": ["H", 0.0471], "16": ["H", 0.082937]}, "dipole_moment": {"X": 0.1524, "Y": 1.3169, "Z": -1.1913, "Tot": 1.7824}, "functional": "B3LYP", "basis": "6-31+G*", "phase": "gas", "tag": "lis", "state": "successful", "wall_time (s)": 7.376282325014472, "version": "0.0.1", "gauss_version": "ES64L-G16RevC.01", "last_updated": "2021-09-14 23:09:49.823000", "polarizability": 59.88, "fluorinated-solvent": "90838605", "run_ids": ["61412ba8e21d74208be52af4", "61412bb6a6d184041e9b2234"]}