{"_id": "613a4bff7ea25695707ae4be", "molecule": {"@module": "pymatgen.core.structure", "@class": "Molecule", "charge": 0, "spin_multiplicity": 1, "sites": [{"name": "F", "species": [{"element": "F", "occu": 1}], "xyz": [1.035944, 2.586792, 3.901815], "properties": {}}, {"name": "F", "species": [{"element": "F", "occu": 1}], "xyz": [-0.873043, 2.765311, 2.85398], "properties": {}}, {"name": "F", "species": [{"element": "F", "occu": 1}], "xyz": [0.821694, 4.013309, 2.268015], "properties": {}}, {"name": "O", "species": [{"element": "O", "occu": 1}], "xyz": [2.290962, 1.77212, 1.459364], "properties": {}}, {"name": "C", "species": [{"element": "C", "occu": 1}], "xyz": [2.735006, 2.558047, 0.328498], "properties": {}}, {"name": "C", "species": [{"element": "C", "occu": 1}], "xyz": [0.8994, 1.690771, 1.674256], "properties": {}}, {"name": "C", "species": [{"element": "C", "occu": 1}], "xyz": [4.147033, 3.028185, 0.678509], "properties": {}}, {"name": "C", "species": [{"element": "C", "occu": 1}], "xyz": [2.659109, 1.711652, -0.942286], "properties": {}}, {"name": "C", "species": [{"element": "C", "occu": 1}], "xyz": [0.47747, 2.76774, 2.685651], "properties": {}}, {"name": "C", "species": [{"element": "C", "occu": 1}], "xyz": [0.555455, 0.294348, 2.181963], "properties": {}}, {"name": "C", "species": [{"element": "C", "occu": 1}], "xyz": [4.768699, 3.957078, -0.371391], "properties": {}}, {"name": "H", "species": [{"element": "H", "occu": 1}], "xyz": [2.084944, 3.438867, 0.229264], "properties": {}}, {"name": "H", "species": [{"element": "H", "occu": 1}], "xyz": [0.33532, 1.911644, 0.756646], "properties": {}}, {"name": "H", "species": [{"element": "H", "occu": 1}], "xyz": [4.091103, 3.541965, 1.645844], "properties": {}}, {"name": "H", "species": [{"element": "H", "occu": 1}], "xyz": [4.779601, 2.142698, 0.827558], "properties": {}}, {"name": "H", "species": [{"element": "H", "occu": 1}], "xyz": [1.643876, 1.329657, -1.102075], "properties": {}}, {"name": "H", "species": [{"element": "H", "occu": 1}], "xyz": [2.932472, 2.299857, -1.825173], "properties": {}}, {"name": "H", "species": [{"element": "H", "occu": 1}], "xyz": [3.338606, 0.854804, -0.865364], "properties": {}}, {"name": "H", "species": [{"element": "H", "occu": 1}], "xyz": [-0.508915, 0.209635, 2.422242], "properties": {}}, {"name": "H", "species": [{"element": "H", "occu": 1}], "xyz": [0.806908, -0.434869, 1.406695], "properties": {}}, {"name": "H", "species": [{"element": "H", "occu": 1}], "xyz": [1.143745, 0.068185, 3.075993], "properties": {}}, {"name": "H", "species": [{"element": "H", "occu": 1}], "xyz": [4.124652, 4.824638, -0.565987], "properties": {}}, {"name": "H", "species": [{"element": "H", "occu": 1}], "xyz": [5.737055, 4.334917, -0.024624], "properties": {}}, {"name": "H", "species": [{"element": "H", "occu": 1}], "xyz": [4.938435, 3.444316, -1.325154], "properties": {}}]}, "smiles": "FC(F)(F)[C@@H](O[C@@H](CC)C)C", "inchi": "InChI=1S/C7H13F3O/c1-4-5(2)11-6(3)7(8,9)10/h5-6H,4H2,1-3H3/t5-,6+/m1/s1", "formula_alphabetical": "C7 F3 H13 O1", "chemsys": "C-F-H-O", "energy": -649.365156026, "esp": {"1": ["F", -0.170585], "2": ["F", -0.209067], "3": ["F", -0.190186], "4": ["O", -0.625225], "5": ["C", 0.623692], "6": ["C", 0.417335], "7": ["C", 0.045531], "8": ["C", -0.477877], "9": ["C", 0.435396], "10": ["C", -0.398269], "11": ["C", -0.274073], "12": ["H", -0.075507], "13": ["H", -0.004125], "14": ["H", 0.005679], "15": ["H", 0.009947], "16": ["H", 0.117521], "17": ["H", 0.095059], "18": ["H", 0.122167], "19": ["H", 0.096509], "20": ["H", 0.124981], "21": ["H", 0.135251], "22": ["H", 0.055825], "23": ["H", 0.078352], "24": ["H", 0.061671]}, "dipole_moment": {"X": 0.3584, "Y": -1.0003, "Z": -2.4451, "Tot": 2.666}, "functional": "B3LYP", "basis": "6-31+G*", "phase": "gas", "tag": "lis", "state": "successful", "wall_time (s)": 11.136610619956627, "version": "0.0.1", "gauss_version": "ES64L-G16RevC.01", "last_updated": "2021-09-09 18:01:35.476000", "polarizability": 90.07, "fluorinated-solvent": "20612575", "run_ids": ["613a4950ea32c9910008784d", "613a4b4b86417a8f63e50ed2"]}