{"_id": "61410f9552b942753aaba572", "molecule": {"@module": "pymatgen.core.structure", "@class": "Molecule", "charge": 0, "spin_multiplicity": 1, "sites": [{"name": "F", "species": [{"element": "F", "occu": 1}], "xyz": [1.36644, -0.377466, -0.728453], "properties": {}}, {"name": "F", "species": [{"element": "F", "occu": 1}], "xyz": [3.45922, -0.000475, -1.213956], "properties": {}}, {"name": "F", "species": [{"element": "F", "occu": 1}], "xyz": [0.682546, 2.42596, -0.134986], "properties": {}}, {"name": "F", "species": [{"element": "F", "occu": 1}], "xyz": [2.104826, -1.174531, 1.840231], "properties": {}}, {"name": "F", "species": [{"element": "F", "occu": 1}], "xyz": [3.08241, -2.28975, 0.238827], "properties": {}}, {"name": "F", "species": [{"element": "F", "occu": 1}], "xyz": [4.198294, -0.781219, 1.35504], "properties": {}}, {"name": "F", "species": [{"element": "F", "occu": 1}], "xyz": [2.401985, 4.593723, -0.554802], "properties": {}}, {"name": "F", "species": [{"element": "F", "occu": 1}], "xyz": [2.395237, 3.771323, 1.50133], "properties": {}}, {"name": "O", "species": [{"element": "O", "occu": 1}], "xyz": [2.50016, 1.187982, 0.440425], "properties": {}}, {"name": "C", "species": [{"element": "C", "occu": 1}], "xyz": [2.557249, -0.018938, -0.187779], "properties": {}}, {"name": "C", "species": [{"element": "C", "occu": 1}], "xyz": [2.031411, 2.28592, -0.315336], "properties": {}}, {"name": "C", "species": [{"element": "C", "occu": 1}], "xyz": [2.997359, -1.095983, 0.844606], "properties": {}}, {"name": "C", "species": [{"element": "C", "occu": 1}], "xyz": [2.762325, 3.523062, 0.215994], "properties": {}}, {"name": "H", "species": [{"element": "H", "occu": 1}], "xyz": [2.227804, 2.15226, -1.383322], "properties": {}}, {"name": "H", "species": [{"element": "H", "occu": 1}], "xyz": [3.849223, 3.401231, 0.171422], "properties": {}}]}, "smiles": "FC(F)(O[C@@H](F)C(F)F)C(F)(F)F", "inchi": "InChI=1S/C4H2F8O/c5-1(6)2(7)13-4(11,12)3(8,9)10/h1-2H/t2-/m1/s1", "formula_alphabetical": "C4 F8 H2 O1", "chemsys": "C-F-H-O", "energy": -1027.63065822, "esp": {"1": ["F", -0.128173], "2": ["F", -0.16172], "3": ["F", -0.160304], "4": ["F", -0.136661], "5": ["F", -0.152356], "6": ["F", -0.154081], "7": ["F", -0.210808], "8": ["F", -0.167009], "9": ["O", -0.298649], "10": ["C", 0.319149], "11": ["C", 0.216438], "12": ["C", 0.489372], "13": ["C", 0.294734], "14": ["H", 0.140281], "15": ["H", 0.109788]}, "dipole_moment": {"X": 1.8128, "Y": 0.0117, "Z": -1.3173, "Tot": 2.2409}, "functional": "B3LYP", "basis": "6-31+G*", "phase": "gas", "tag": "lis", "state": "successful", "wall_time (s)": 8.580971780931577, "version": "0.0.1", "gauss_version": "ES64L-G16RevC.01", "last_updated": "2021-09-14 21:09:41.537000", "polarizability": 59.35, "fluorinated-solvent": "87757486", "run_ids": ["61410f5f8850b8151572e414", "61410f83da83a1878f5d57de"]}