{"_id": "61412cebeab6ddd022fc0fee", "molecule": {"@module": "pymatgen.core.structure", "@class": "Molecule", "charge": 0, "spin_multiplicity": 1, "sites": [{"name": "F", "species": [{"element": "F", "occu": 1}], "xyz": [2.86619, -2.759311, -1.811983], "properties": {}}, {"name": "F", "species": [{"element": "F", "occu": 1}], "xyz": [1.069973, -1.522314, -1.659466], "properties": {}}, {"name": "F", "species": [{"element": "F", "occu": 1}], "xyz": [2.775863, -0.735463, -3.646011], "properties": {}}, {"name": "F", "species": [{"element": "F", "occu": 1}], "xyz": [2.611188, 0.766809, -2.072053], "properties": {}}, {"name": "F", "species": [{"element": "F", "occu": 1}], "xyz": [4.40746, -0.466127, -2.222452], "properties": {}}, {"name": "F", "species": [{"element": "F", "occu": 1}], "xyz": [2.614069, -3.768034, 3.236269], "properties": {}}, {"name": "O", "species": [{"element": "O", "occu": 1}], "xyz": [2.728744, -1.230267, -0.156642], "properties": {}}, {"name": "C", "species": [{"element": "C", "occu": 1}], "xyz": [2.19243, -2.118905, 0.864558], "properties": {}}, {"name": "C", "species": [{"element": "C", "occu": 1}], "xyz": [2.722792, -1.61263, 2.196622], "properties": {}}, {"name": "C", "species": [{"element": "C", "occu": 1}], "xyz": [2.423183, -1.519613, -1.428862], "properties": {}}, {"name": "C", "species": [{"element": "C", "occu": 1}], "xyz": [3.07182, -0.461105, -2.365188], "properties": {}}, {"name": "C", "species": [{"element": "C", "occu": 1}], "xyz": [2.195146, -2.428638, 3.364187], "properties": {}}, {"name": "H", "species": [{"element": "H", "occu": 1}], "xyz": [1.098418, -2.078887, 0.823752], "properties": {}}, {"name": "H", "species": [{"element": "H", "occu": 1}], "xyz": [2.52742, -3.139348, 0.662127], "properties": {}}, {"name": "H", "species": [{"element": "H", "occu": 1}], "xyz": [3.818256, -1.642884, 2.190429], "properties": {}}, {"name": "H", "species": [{"element": "H", "occu": 1}], "xyz": [2.421067, -0.566285, 2.336328], "properties": {}}, {"name": "H", "species": [{"element": "H", "occu": 1}], "xyz": [2.583583, -2.056379, 4.31756], "properties": {}}, {"name": "H", "species": [{"element": "H", "occu": 1}], "xyz": [1.098977, -2.440572, 3.398545], "properties": {}}]}, "smiles": "FC(F)(OCCCF)C(F)(F)F", "inchi": "InChI=1S/C5H6F6O/c6-2-1-3-12-5(10,11)4(7,8)9/h1-3H2", "formula_alphabetical": "C5 F6 H6 O1", "chemsys": "C-F-H-O", "energy": -868.463335742, "esp": {"1": ["F", -0.158377], "2": ["F", -0.16619], "3": ["F", -0.15202], "4": ["F", -0.152161], "5": ["F", -0.153736], "6": ["F", -0.285301], "7": ["O", -0.37875], "8": ["C", 0.400306], "9": ["C", -0.216849], "10": ["C", 0.290983], "11": ["C", 0.485843], "12": ["C", 0.139086], "13": ["H", 0.012053], "14": ["H", 0.025956], "15": ["H", 0.10612], "16": ["H", 0.073139], "17": ["H", 0.079363], "18": ["H", 0.050535]}, "dipole_moment": {"X": -0.9221, "Y": 0.9162, "Z": 2.9948, "Tot": 3.2647}, "functional": "B3LYP", "basis": "6-31+G*", "phase": "gas", "tag": "lis", "state": "successful", "wall_time (s)": 8.82367133104708, "version": "0.0.1", "gauss_version": "ES64L-G16RevC.01", "last_updated": "2021-09-14 23:14:51.080000", "polarizability": 69.03, "fluorinated-solvent": "152376968", "run_ids": ["61412cd5300a084b87455c1b", "61412ce4f34e0256752ae669"]}