{"_id": "614121d628530b6f4e6329de", "molecule": {"@module": "pymatgen.core.structure", "@class": "Molecule", "charge": 0, "spin_multiplicity": 1, "sites": [{"name": "F", "species": [{"element": "F", "occu": 1}], "xyz": [2.55069, 3.037939, -1.267561], "properties": {}}, {"name": "F", "species": [{"element": "F", "occu": 1}], "xyz": [1.082482, 1.953512, -0.059442], "properties": {}}, {"name": "F", "species": [{"element": "F", "occu": 1}], "xyz": [2.556838, -0.661083, -4.8455], "properties": {}}, {"name": "F", "species": [{"element": "F", "occu": 1}], "xyz": [4.530134, 2.448772, 0.61248], "properties": {}}, {"name": "F", "species": [{"element": "F", "occu": 1}], "xyz": [2.757669, 3.471994, 1.445609], "properties": {}}, {"name": "O", "species": [{"element": "O", "occu": 1}], "xyz": [2.856723, 0.832203, -0.889515], "properties": {}}, {"name": "C", "species": [{"element": "C", "occu": 1}], "xyz": [2.246909, 0.39185, -2.133604], "properties": {}}, {"name": "C", "species": [{"element": "C", "occu": 1}], "xyz": [2.899694, -0.934713, -2.48989], "properties": {}}, {"name": "C", "species": [{"element": "C", "occu": 1}], "xyz": [2.42395, 2.002241, -0.382422], "properties": {}}, {"name": "C", "species": [{"element": "C", "occu": 1}], "xyz": [2.321747, -1.53067, -3.762025], "properties": {}}, {"name": "C", "species": [{"element": "C", "occu": 1}], "xyz": [3.208474, 2.304555, 0.909793], "properties": {}}, {"name": "H", "species": [{"element": "H", "occu": 1}], "xyz": [1.167724, 0.280794, -1.978301], "properties": {}}, {"name": "H", "species": [{"element": "H", "occu": 1}], "xyz": [2.426124, 1.144472, -2.905414], "properties": {}}, {"name": "H", "species": [{"element": "H", "occu": 1}], "xyz": [3.979867, -0.791445, -2.607764], "properties": {}}, {"name": "H", "species": [{"element": "H", "occu": 1}], "xyz": [2.748181, -1.649634, -1.670256], "properties": {}}, {"name": "H", "species": [{"element": "H", "occu": 1}], "xyz": [2.795999, -2.487076, -4.004953], "properties": {}}, {"name": "H", "species": [{"element": "H", "occu": 1}], "xyz": [1.235788, -1.670285, -3.696761], "properties": {}}, {"name": "H", "species": [{"element": "H", "occu": 1}], "xyz": [3.087586, 1.499882, 1.640177], "properties": {}}]}, "smiles": "FC(F)(OCCCF)C(F)F", "inchi": "InChI=1S/C5H7F5O/c6-2-1-3-11-5(9,10)4(7)8/h4H,1-3H2", "formula_alphabetical": "C5 F5 H7 O1", "chemsys": "C-F-H-O", "energy": -769.212899683, "esp": {"1": ["F", -0.17234], "2": ["F", -0.223801], "3": ["F", -0.288741], "4": ["F", -0.211367], "5": ["F", -0.216463], "6": ["O", -0.468979], "7": ["C", 0.418809], "8": ["C", -0.201722], "9": ["C", 0.42028], "10": ["C", 0.148246], "11": ["C", 0.383073], "12": ["H", 0.007819], "13": ["H", 0.018101], "14": ["H", 0.106436], "15": ["H", 0.065047], "16": ["H", 0.073773], "17": ["H", 0.044947], "18": ["H", 0.096882]}, "dipole_moment": {"X": -0.7202, "Y": -4.11, "Z": 0.4329, "Tot": 4.195}, "functional": "B3LYP", "basis": "6-31+G*", "phase": "gas", "tag": "lis", "state": "successful", "wall_time (s)": 8.41824421507772, "version": "0.0.1", "gauss_version": "ES64L-G16RevC.01", "last_updated": "2021-09-14 22:27:34.522000", "polarizability": 68.06, "fluorinated-solvent": "88850899", "run_ids": ["614121bb7cea4cf6bf608b30", "614121cfef7aead575a94bd1"]}