{"_id": "6141164d9edf9be6fa4b599a", "molecule": {"@module": "pymatgen.core.structure", "@class": "Molecule", "charge": 0, "spin_multiplicity": 1, "sites": [{"name": "F", "species": [{"element": "F", "occu": 1}], "xyz": [5.073573, -2.775112, -0.338059], "properties": {}}, {"name": "F", "species": [{"element": "F", "occu": 1}], "xyz": [3.762842, -3.230963, -2.031252], "properties": {}}, {"name": "F", "species": [{"element": "F", "occu": 1}], "xyz": [0.506673, -0.114251, 1.801935], "properties": {}}, {"name": "F", "species": [{"element": "F", "occu": 1}], "xyz": [1.544207, -0.307934, 3.719936], "properties": {}}, {"name": "O", "species": [{"element": "O", "occu": 1}], "xyz": [3.356716, -1.374032, -0.806247], "properties": {}}, {"name": "O", "species": [{"element": "O", "occu": 1}], "xyz": [2.76915, -0.217601, 1.821236], "properties": {}}, {"name": "C", "species": [{"element": "C", "occu": 1}], "xyz": [2.438664, -1.96976, 0.142629], "properties": {}}, {"name": "C", "species": [{"element": "C", "occu": 1}], "xyz": [2.837629, -1.642793, 1.571823], "properties": {}}, {"name": "C", "species": [{"element": "C", "occu": 1}], "xyz": [4.306175, -2.178802, -1.323264], "properties": {}}, {"name": "C", "species": [{"element": "C", "occu": 1}], "xyz": [1.672627, 0.237484, 2.459176], "properties": {}}, {"name": "H", "species": [{"element": "H", "occu": 1}], "xyz": [1.460187, -1.548794, -0.09189], "properties": {}}, {"name": "H", "species": [{"element": "H", "occu": 1}], "xyz": [2.404478, -3.055669, 0.006855], "properties": {}}, {"name": "H", "species": [{"element": "H", "occu": 1}], "xyz": [2.188799, -2.181673, 2.269982], "properties": {}}, {"name": "H", "species": [{"element": "H", "occu": 1}], "xyz": [3.874999, -1.923688, 1.757817], "properties": {}}, {"name": "H", "species": [{"element": "H", "occu": 1}], "xyz": [4.956478, -1.603626, -1.982227], "properties": {}}, {"name": "H", "species": [{"element": "H", "occu": 1}], "xyz": [1.720571, 1.323093, 2.543471], "properties": {}}]}, "smiles": "FC(F)OCCOC(F)F", "inchi": "InChI=1S/C4H6F4O2/c5-3(6)9-1-2-10-4(7)8/h3-4H,1-2H2", "formula_alphabetical": "C4 F4 H6 O2", "chemsys": "C-F-H-O", "energy": -705.88421625, "esp": {"1": ["F", -0.250416], "2": ["F", -0.247303], "3": ["F", -0.244592], "4": ["F", -0.239894], "5": ["O", -0.40025], "6": ["O", -0.381959], "7": ["C", 0.146835], "8": ["C", 0.076086], "9": ["C", 0.506405], "10": ["C", 0.48237], "11": ["H", 0.099471], "12": ["H", 0.05713], "13": ["H", 0.072897], "14": ["H", 0.114658], "15": ["H", 0.101615], "16": ["H", 0.106948]}, "dipole_moment": {"X": 0.1824, "Y": 0.4335, "Z": -0.1496, "Tot": 0.4936}, "functional": "B3LYP", "basis": "6-31+G*", "phase": "gas", "tag": "lis", "state": "successful", "wall_time (s)": 7.29510681796819, "version": "0.0.1", "gauss_version": "ES64L-G16RevC.01", "last_updated": "2021-09-14 21:38:21.406000", "polarizability": 59.93, "fluorinated-solvent": "117619353", "run_ids": ["6141162a6201e38b4f929794", "61411640a96190a863f935d6"]}