{"_id": "6141281430a17dd3d7f897fe", "molecule": {"@module": "pymatgen.core.structure", "@class": "Molecule", "charge": 0, "spin_multiplicity": 1, "sites": [{"name": "F", "species": [{"element": "F", "occu": 1}], "xyz": [0.162483, 0.48191, 0.060721], "properties": {}}, {"name": "F", "species": [{"element": "F", "occu": 1}], "xyz": [1.640024, 0.212565, 1.647925], "properties": {}}, {"name": "F", "species": [{"element": "F", "occu": 1}], "xyz": [1.670735, -1.082537, -0.110327], "properties": {}}, {"name": "F", "species": [{"element": "F", "occu": 1}], "xyz": [4.953082, -0.273293, -4.698239], "properties": {}}, {"name": "F", "species": [{"element": "F", "occu": 1}], "xyz": [3.441225, -1.841839, -4.56269], "properties": {}}, {"name": "F", "species": [{"element": "F", "occu": 1}], "xyz": [3.326114, -0.349655, -6.153354], "properties": {}}, {"name": "O", "species": [{"element": "O", "occu": 1}], "xyz": [2.255246, 1.118202, -1.788212], "properties": {}}, {"name": "C", "species": [{"element": "C", "occu": 1}], "xyz": [2.416746, 1.181257, -0.383041], "properties": {}}, {"name": "C", "species": [{"element": "C", "occu": 1}], "xyz": [3.090454, 0.18657, -2.478548], "properties": {}}, {"name": "C", "species": [{"element": "C", "occu": 1}], "xyz": [2.780429, 0.366849, -3.961671], "properties": {}}, {"name": "C", "species": [{"element": "C", "occu": 1}], "xyz": [1.459, 0.193971, 0.301681], "properties": {}}, {"name": "C", "species": [{"element": "C", "occu": 1}], "xyz": [2.14461, 2.612102, 0.067062], "properties": {}}, {"name": "C", "species": [{"element": "C", "occu": 1}], "xyz": [3.623805, -0.524798, -4.842842], "properties": {}}, {"name": "H", "species": [{"element": "H", "occu": 1}], "xyz": [3.43035, 0.869602, -0.090267], "properties": {}}, {"name": "H", "species": [{"element": "H", "occu": 1}], "xyz": [4.147869, 0.408851, -2.273478], "properties": {}}, {"name": "H", "species": [{"element": "H", "occu": 1}], "xyz": [2.880792, -0.840902, -2.162172], "properties": {}}, {"name": "H", "species": [{"element": "H", "occu": 1}], "xyz": [1.72926, 0.134379, -4.15632], "properties": {}}, {"name": "H", "species": [{"element": "H", "occu": 1}], "xyz": [2.962309, 1.403145, -4.261829], "properties": {}}, {"name": "H", "species": [{"element": "H", "occu": 1}], "xyz": [2.210571, 2.701363, 1.155455], "properties": {}}, {"name": "H", "species": [{"element": "H", "occu": 1}], "xyz": [2.883523, 3.275321, -0.390986], "properties": {}}, {"name": "H", "species": [{"element": "H", "occu": 1}], "xyz": [1.147184, 2.922288, -0.257618], "properties": {}}]}, "smiles": "FC(F)(F)[C@@H](OCCC(F)(F)F)C", "inchi": "InChI=1S/C6H8F6O/c1-4(6(10,11)12)13-3-2-5(7,8)9/h4H,2-3H2,1H3/t4-/m0/s1", "formula_alphabetical": "C6 F6 H8 O1", "chemsys": "C-F-H-O", "energy": -907.794414781, "esp": {"1": ["F", -0.161069], "2": ["F", -0.199078], "3": ["F", -0.174269], "4": ["F", -0.222546], "5": ["F", -0.210992], "6": ["F", -0.211461], "7": ["O", -0.499579], "8": ["C", 0.362433], "9": ["C", 0.380514], "10": ["C", -0.300144], "11": ["C", 0.421612], "12": ["C", -0.372008], "13": ["C", 0.592126], "14": ["H", 0.006109], "15": ["H", 0.001724], "16": ["H", -0.023297], "17": ["H", 0.135043], "18": ["H", 0.126109], "19": ["H", 0.105577], "20": ["H", 0.124161], "21": ["H", 0.119035]}, "dipole_moment": {"X": 0.8488, "Y": 2.2967, "Z": 1.0125, "Tot": 2.6496}, "functional": "B3LYP", "basis": "6-31+G*", "phase": "gas", "tag": "lis", "state": "successful", "wall_time (s)": 11.14568189997226, "version": "0.0.1", "gauss_version": "ES64L-G16RevC.01", "last_updated": "2021-09-14 22:54:12.478000", "polarizability": 80.26, "fluorinated-solvent": "58537743", "run_ids": ["614127f9a0cbc23b1922aa7c", "6141280c9ef48e3fb5be0ec4"]}