{"_id": "61411a95af570a43058b3363", "molecule": {"@module": "pymatgen.core.structure", "@class": "Molecule", "charge": 0, "spin_multiplicity": 1, "sites": [{"name": "F", "species": [{"element": "F", "occu": 1}], "xyz": [4.776209, -0.019715, -2.52234], "properties": {}}, {"name": "F", "species": [{"element": "F", "occu": 1}], "xyz": [4.534879, 1.20959, -0.706905], "properties": {}}, {"name": "F", "species": [{"element": "F", "occu": 1}], "xyz": [0.82699, 3.271846, -2.496489], "properties": {}}, {"name": "F", "species": [{"element": "F", "occu": 1}], "xyz": [0.995139, 2.073657, -4.340778], "properties": {}}, {"name": "F", "species": [{"element": "F", "occu": 1}], "xyz": [4.421467, -1.064604, 0.830057], "properties": {}}, {"name": "F", "species": [{"element": "F", "occu": 1}], "xyz": [4.488797, -2.313909, -0.990143], "properties": {}}, {"name": "F", "species": [{"element": "F", "occu": 1}], "xyz": [-1.532142, 1.028804, -3.875095], "properties": {}}, {"name": "F", "species": [{"element": "F", "occu": 1}], "xyz": [-1.740606, 2.367101, -2.130397], "properties": {}}, {"name": "F", "species": [{"element": "F", "occu": 1}], "xyz": [6.877089, 0.01836, 0.166315], "properties": {}}, {"name": "F", "species": [{"element": "F", "occu": 1}], "xyz": [6.864169, -2.189641, 0.241617], "properties": {}}, {"name": "F", "species": [{"element": "F", "occu": 1}], "xyz": [-2.919088, 3.245086, -4.458146], "properties": {}}, {"name": "F", "species": [{"element": "F", "occu": 1}], "xyz": [-1.278358, 4.550711, -3.762147], "properties": {}}, {"name": "O", "species": [{"element": "O", "occu": 1}], "xyz": [2.207036, 0.944124, -2.114814], "properties": {}}, {"name": "C", "species": [{"element": "C", "occu": 1}], "xyz": [4.212638, 0.01427, -1.270243], "properties": {}}, {"name": "C", "species": [{"element": "C", "occu": 1}], "xyz": [0.409161, 2.126621, -3.099628], "properties": {}}, {"name": "C", "species": [{"element": "C", "occu": 1}], "xyz": [2.698608, -0.1412, -1.362516], "properties": {}}, {"name": "C", "species": [{"element": "C", "occu": 1}], "xyz": [0.806916, 0.910721, -2.269963], "properties": {}}, {"name": "C", "species": [{"element": "C", "occu": 1}], "xyz": [4.882387, -1.118395, -0.447806], "properties": {}}, {"name": "C", "species": [{"element": "C", "occu": 1}], "xyz": [-1.122334, 2.218549, -3.332017], "properties": {}}, {"name": "C", "species": [{"element": "C", "occu": 1}], "xyz": [6.427055, -1.103723, -0.455405], "properties": {}}, {"name": "C", "species": [{"element": "C", "occu": 1}], "xyz": [-1.568988, 3.336472, -4.300005], "properties": {}}, {"name": "H", "species": [{"element": "H", "occu": 1}], "xyz": [2.473248, -1.103077, -1.843302], "properties": {}}, {"name": "H", "species": [{"element": "H", "occu": 1}], "xyz": [2.290355, -0.145715, -0.341283], "properties": {}}, {"name": "H", "species": [{"element": "H", "occu": 1}], "xyz": [0.478612, 0.004129, -2.796696], "properties": {}}, {"name": "H", "species": [{"element": "H", "occu": 1}], "xyz": [0.289388, 0.970673, -1.301366], "properties": {}}, {"name": "H", "species": [{"element": "H", "occu": 1}], "xyz": [6.824957, -1.144006, -1.472289], "properties": {}}, {"name": "H", "species": [{"element": "H", "occu": 1}], "xyz": [-1.084628, 3.241947, -5.274916], "properties": {}}]}, "smiles": "FC(F)(COCC(F)(F)C(F)(F)C(F)F)C(F)(F)C(F)F", "inchi": "InChI=1S/C8H6F12O/c9-3(10)7(17,18)5(13,14)1-21-2-6(15,16)8(19,20)4(11)12/h3-4H,1-2H2", "formula_alphabetical": "C8 F12 H6 O1", "chemsys": "C-F-H-O", "energy": -1581.82895655, "esp": {"1": ["F", -0.183898], "2": ["F", -0.160167], "3": ["F", -0.167246], "4": ["F", -0.190012], "5": ["F", -0.151342], "6": ["F", -0.195406], "7": ["F", -0.183787], "8": ["F", -0.137533], "9": ["F", -0.216491], "10": ["F", -0.217371], "11": ["F", -0.184065], "12": ["F", -0.184924], "13": ["O", -0.204248], "14": ["C", 0.263523], "15": ["C", 0.327655], "16": ["C", -0.014688], "17": ["C", -0.094487], "18": ["C", 0.238353], "19": ["C", 0.225523], "20": ["C", 0.451773], "21": ["C", 0.314041], "22": ["H", 0.109913], "23": ["H", 0.112517], "24": ["H", 0.125978], "25": ["H", 0.119653], "26": ["H", 0.076538], "27": ["H", 0.120199]}, "dipole_moment": {"X": -0.7093, "Y": -2.4296, "Z": -1.3332, "Tot": 2.8607}, "functional": "B3LYP", "basis": "6-31+G*", "phase": "gas", "tag": "lis", "state": "successful", "wall_time (s)": 24.997493527946062, "version": "0.0.1", "gauss_version": "ES64L-G16RevC.01", "last_updated": "2021-09-14 21:56:37.689000", "polarizability": 108.29, "fluorinated-solvent": "87322596", "run_ids": ["61411a6652b5c55852a2aaba", "61411a8bece047b41697d31a"]}