{"_id": "61411f156bf11c618e6c6fb7", "molecule": {"@module": "pymatgen.core.structure", "@class": "Molecule", "charge": 0, "spin_multiplicity": 1, "sites": [{"name": "F", "species": [{"element": "F", "occu": 1}], "xyz": [2.499635, 3.407165, 0.788612], "properties": {}}, {"name": "F", "species": [{"element": "F", "occu": 1}], "xyz": [0.879057, 1.972202, 1.103247], "properties": {}}, {"name": "F", "species": [{"element": "F", "occu": 1}], "xyz": [4.323915, 1.566593, 1.919783], "properties": {}}, {"name": "F", "species": [{"element": "F", "occu": 1}], "xyz": [3.357329, 1.492656, 4.43807], "properties": {}}, {"name": "F", "species": [{"element": "F", "occu": 1}], "xyz": [2.948304, 3.421017, 3.511137], "properties": {}}, {"name": "F", "species": [{"element": "F", "occu": 1}], "xyz": [1.334769, 1.972629, 3.776926], "properties": {}}, {"name": "F", "species": [{"element": "F", "occu": 1}], "xyz": [0.567415, -0.638927, -3.767319], "properties": {}}, {"name": "F", "species": [{"element": "F", "occu": 1}], "xyz": [1.043097, -2.405415, -2.573151], "properties": {}}, {"name": "F", "species": [{"element": "F", "occu": 1}], "xyz": [0.253752, -0.615766, -1.607731], "properties": {}}, {"name": "O", "species": [{"element": "O", "occu": 1}], "xyz": [2.624872, 1.386893, -0.198086], "properties": {}}, {"name": "C", "species": [{"element": "C", "occu": 1}], "xyz": [2.695736, 0.960921, -2.551671], "properties": {}}, {"name": "C", "species": [{"element": "C", "occu": 1}], "xyz": [2.053031, 1.813937, -1.466914], "properties": {}}, {"name": "C", "species": [{"element": "C", "occu": 1}], "xyz": [2.238501, 2.064604, 0.900677], "properties": {}}, {"name": "C", "species": [{"element": "C", "occu": 1}], "xyz": [2.514118, -0.556844, -2.391803], "properties": {}}, {"name": "C", "species": [{"element": "C", "occu": 1}], "xyz": [2.962451, 1.460979, 2.119649], "properties": {}}, {"name": "C", "species": [{"element": "C", "occu": 1}], "xyz": [2.640994, 2.114988, 3.475703], "properties": {}}, {"name": "C", "species": [{"element": "C", "occu": 1}], "xyz": [1.096214, -1.049934, -2.583609], "properties": {}}, {"name": "H", "species": [{"element": "H", "occu": 1}], "xyz": [2.295114, 1.286266, -3.518997], "properties": {}}, {"name": "H", "species": [{"element": "H", "occu": 1}], "xyz": [3.771802, 1.16828, -2.563278], "properties": {}}, {"name": "H", "species": [{"element": "H", "occu": 1}], "xyz": [0.9691, 1.685141, -1.421893], "properties": {}}, {"name": "H", "species": [{"element": "H", "occu": 1}], "xyz": [2.288634, 2.870784, -1.622536], "properties": {}}, {"name": "H", "species": [{"element": "H", "occu": 1}], "xyz": [2.690283, 0.403713, 2.185665], "properties": {}}, {"name": "H", "species": [{"element": "H", "occu": 1}], "xyz": [3.123328, -1.080352, -3.135525], "properties": {}}, {"name": "H", "species": [{"element": "H", "occu": 1}], "xyz": [2.841607, -0.88642, -1.401575], "properties": {}}]}, "smiles": "FC(F)(OCCCC(F)(F)F)[C@@H](F)C(F)(F)F", "inchi": "InChI=1S/C7H7F9O/c8-4(6(12,13)14)7(15,16)17-3-1-2-5(9,10)11/h4H,1-3H2/t4-/m0/s1", "formula_alphabetical": "C7 F9 H7 O1", "chemsys": "C-F-H-O", "energy": -1244.83953619, "esp": {"1": ["F", -0.183374], "2": ["F", -0.202843], "3": ["F", -0.166002], "4": ["F", -0.212504], "5": ["F", -0.187417], "6": ["F", -0.217054], "7": ["F", -0.21722], "8": ["F", -0.235218], "9": ["F", -0.214741], "10": ["O", -0.265656], "11": ["C", -0.075834], "12": ["C", 0.018437], "13": ["C", 0.461189], "14": ["C", -0.236501], "15": ["C", -0.125433], "16": ["C", 0.679705], "17": ["C", 0.638256], "18": ["H", 0.064453], "19": ["H", 0.088928], "20": ["H", 0.096665], "21": ["H", 0.091743], "22": ["H", 0.179485], "23": ["H", 0.114426], "24": ["H", 0.106509]}, "dipole_moment": {"X": 1.4127, "Y": -0.541, "Z": -2.6082, "Tot": 3.0152}, "functional": "B3LYP", "basis": "6-31+G*", "phase": "gas", "tag": "lis", "state": "successful", "wall_time (s)": 17.19462866394315, "version": "0.0.1", "gauss_version": "ES64L-G16RevC.01", "last_updated": "2021-09-14 22:15:49.310000", "polarizability": 93.29, "fluorinated-solvent": "90243369", "run_ids": ["61411ef584f7a98e4cce1607", "61411f0cd0c3f3a6bdce822e"]}