{"_id": "61412a1512b881c47c69a5c8", "molecule": {"@module": "pymatgen.core.structure", "@class": "Molecule", "charge": 0, "spin_multiplicity": 1, "sites": [{"name": "F", "species": [{"element": "F", "occu": 1}], "xyz": [0.659725, 1.852905, -0.573486], "properties": {}}, {"name": "F", "species": [{"element": "F", "occu": 1}], "xyz": [2.259173, 3.271973, -1.006547], "properties": {}}, {"name": "F", "species": [{"element": "F", "occu": 1}], "xyz": [2.111945, 2.362672, 0.974406], "properties": {}}, {"name": "O", "species": [{"element": "O", "occu": 1}], "xyz": [2.632441, 0.764046, -2.16751], "properties": {}}, {"name": "C", "species": [{"element": "C", "occu": 1}], "xyz": [2.864298, 0.960508, -0.786939], "properties": {}}, {"name": "C", "species": [{"element": "C", "occu": 1}], "xyz": [2.69167, -0.59768, -2.596956], "properties": {}}, {"name": "C", "species": [{"element": "C", "occu": 1}], "xyz": [2.531268, -0.629492, -4.110867], "properties": {}}, {"name": "C", "species": [{"element": "C", "occu": 1}], "xyz": [1.966493, 2.123397, -0.357849], "properties": {}}, {"name": "C", "species": [{"element": "C", "occu": 1}], "xyz": [4.337413, 1.241889, -0.491181], "properties": {}}, {"name": "C", "species": [{"element": "C", "occu": 1}], "xyz": [3.669861, 0.081234, -4.851022], "properties": {}}, {"name": "H", "species": [{"element": "H", "occu": 1}], "xyz": [2.51082, 0.094894, -0.206037], "properties": {}}, {"name": "H", "species": [{"element": "H", "occu": 1}], "xyz": [3.657457, -1.043624, -2.306613], "properties": {}}, {"name": "H", "species": [{"element": "H", "occu": 1}], "xyz": [1.888973, -1.170839, -2.105929], "properties": {}}, {"name": "H", "species": [{"element": "H", "occu": 1}], "xyz": [2.475206, -1.682444, -4.419799], "properties": {}}, {"name": "H", "species": [{"element": "H", "occu": 1}], "xyz": [1.568207, -0.169061, -4.366246], "properties": {}}, {"name": "H", "species": [{"element": "H", "occu": 1}], "xyz": [4.505593, 1.399197, 0.578804], "properties": {}}, {"name": "H", "species": [{"element": "H", "occu": 1}], "xyz": [4.941294, 0.388889, -0.81567], "properties": {}}, {"name": "H", "species": [{"element": "H", "occu": 1}], "xyz": [4.665557, 2.128455, -1.041638], "properties": {}}, {"name": "H", "species": [{"element": "H", "occu": 1}], "xyz": [4.638508, -0.381731, -4.620001], "properties": {}}, {"name": "H", "species": [{"element": "H", "occu": 1}], "xyz": [3.524816, 0.030967, -5.936323], "properties": {}}, {"name": "H", "species": [{"element": "H", "occu": 1}], "xyz": [3.721611, 1.135389, -4.560728], "properties": {}}]}, "smiles": "FC(F)(F)[C@@H](OCCC)C", "inchi": "InChI=1S/C6H11F3O/c1-3-4-10-5(2)6(7,8)9/h5H,3-4H2,1-2H3/t5-/m0/s1", "formula_alphabetical": "C6 F3 H11 O1", "chemsys": "C-F-H-O", "energy": -610.046880975, "esp": {"1": ["F", -0.196842], "2": ["F", -0.176679], "3": ["F", -0.206492], "4": ["O", -0.431271], "5": ["C", 0.293277], "6": ["C", 0.155835], "7": ["C", 0.139992], "8": ["C", 0.480836], "9": ["C", -0.405348], "10": ["C", -0.143236], "11": ["H", 0.035938], "12": ["H", 0.016954], "13": ["H", -0.000234], "14": ["H", -0.032166], "15": ["H", 0.001092], "16": ["H", 0.105026], "17": ["H", 0.127289], "18": ["H", 0.131892], "19": ["H", 0.028492], "20": ["H", 0.031856], "21": ["H", 0.043788]}, "dipole_moment": {"X": 1.742, "Y": -2.8349, "Z": -0.3665, "Tot": 3.3474}, "functional": "B3LYP", "basis": "6-31+G*", "phase": "gas", "tag": "lis", "state": "successful", "wall_time (s)": 9.766280570067465, "version": "0.0.1", "gauss_version": "ES64L-G16RevC.01", "last_updated": "2021-09-14 23:02:45.266000", "polarizability": 78.3, "fluorinated-solvent": "148232465", "run_ids": ["614129fb2e5100eb102aa619", "61412a0f5958ff294435dbc3"]}