{"_id": "6141185d2a5d76886dcc65b9", "molecule": {"@module": "pymatgen.core.structure", "@class": "Molecule", "charge": 0, "spin_multiplicity": 1, "sites": [{"name": "F", "species": [{"element": "F", "occu": 1}], "xyz": [2.375758, 1.772089, -2.846799], "properties": {}}, {"name": "F", "species": [{"element": "F", "occu": 1}], "xyz": [1.022584, 1.457877, -1.157781], "properties": {}}, {"name": "F", "species": [{"element": "F", "occu": 1}], "xyz": [5.238326, 1.364794, -0.388705], "properties": {}}, {"name": "F", "species": [{"element": "F", "occu": 1}], "xyz": [4.975941, 2.624147, -2.149017], "properties": {}}, {"name": "F", "species": [{"element": "F", "occu": 1}], "xyz": [5.112731, 3.529189, -0.167067], "properties": {}}, {"name": "O", "species": [{"element": "O", "occu": 1}], "xyz": [2.855468, 0.152459, -1.351957], "properties": {}}, {"name": "C", "species": [{"element": "C", "occu": 1}], "xyz": [2.811417, -2.228741, -1.632358], "properties": {}}, {"name": "C", "species": [{"element": "C", "occu": 1}], "xyz": [2.252852, -0.910242, -2.145509], "properties": {}}, {"name": "C", "species": [{"element": "C", "occu": 1}], "xyz": [2.522508, -2.513379, -0.148997], "properties": {}}, {"name": "C", "species": [{"element": "C", "occu": 1}], "xyz": [2.366731, 1.393381, -1.517568], "properties": {}}, {"name": "C", "species": [{"element": "C", "occu": 1}], "xyz": [3.107332, 2.416548, -0.666993], "properties": {}}, {"name": "C", "species": [{"element": "C", "occu": 1}], "xyz": [4.61395, 2.467467, -0.856854], "properties": {}}, {"name": "C", "species": [{"element": "C", "occu": 1}], "xyz": [1.029596, -2.584348, 0.197383], "properties": {}}, {"name": "H", "species": [{"element": "H", "occu": 1}], "xyz": [2.380451, -3.024985, -2.256514], "properties": {}}, {"name": "H", "species": [{"element": "H", "occu": 1}], "xyz": [3.895122, -2.239368, -1.805798], "properties": {}}, {"name": "H", "species": [{"element": "H", "occu": 1}], "xyz": [1.165532, -0.854553, -2.037808], "properties": {}}, {"name": "H", "species": [{"element": "H", "occu": 1}], "xyz": [2.515069, -0.746231, -3.195241], "properties": {}}, {"name": "H", "species": [{"element": "H", "occu": 1}], "xyz": [3.002598, -3.465287, 0.113904], "properties": {}}, {"name": "H", "species": [{"element": "H", "occu": 1}], "xyz": [3.007057, -1.742128, 0.462238], "properties": {}}, {"name": "H", "species": [{"element": "H", "occu": 1}], "xyz": [2.703065, 3.403372, -0.901783], "properties": {}}, {"name": "H", "species": [{"element": "H", "occu": 1}], "xyz": [2.91183, 2.196858, 0.384769], "properties": {}}, {"name": "H", "species": [{"element": "H", "occu": 1}], "xyz": [0.510185, -3.321227, -0.429866], "properties": {}}, {"name": "H", "species": [{"element": "H", "occu": 1}], "xyz": [0.885301, -2.877549, 1.243815], "properties": {}}, {"name": "H", "species": [{"element": "H", "occu": 1}], "xyz": [0.532785, -1.616671, 0.059314], "properties": {}}]}, "smiles": "FC(F)(OCCCC)CC(F)(F)F", "inchi": "InChI=1S/C7H11F5O/c1-2-3-4-13-7(11,12)5-6(8,9)10/h2-5H2,1H3", "formula_alphabetical": "C7 F5 H11 O1", "chemsys": "C-F-H-O", "energy": -847.868511909, "esp": {"1": ["F", -0.230647], "2": ["F", -0.242063], "3": ["F", -0.230423], "4": ["F", -0.21255], "5": ["F", -0.240544], "6": ["O", -0.256608], "7": ["C", -0.184034], "8": ["C", 0.079235], "9": ["C", 0.233466], "10": ["C", 0.568074], "11": ["C", -0.54916], "12": ["C", 0.729848], "13": ["C", -0.282714], "14": ["H", 0.062046], "15": ["H", 0.058315], "16": ["H", 0.058507], "17": ["H", 0.071501], "18": ["H", -0.026356], "19": ["H", -0.034555], "20": ["H", 0.217124], "21": ["H", 0.209724], "22": ["H", 0.063289], "23": ["H", 0.063653], "24": ["H", 0.074872]}, "dipole_moment": {"X": -1.3569, "Y": -1.7127, "Z": 0.5776, "Tot": 2.2602}, "functional": "B3LYP", "basis": "6-31+G*", "phase": "gas", "tag": "lis", "state": "successful", "wall_time (s)": 13.057895133038983, "version": "0.0.1", "gauss_version": "ES64L-G16RevC.01", "last_updated": "2021-09-14 21:47:09.007000", "polarizability": 90.23, "fluorinated-solvent": "58537753", "run_ids": ["614118395a8c594296e1effd", "61411853813a44af28699e34"]}