{"_id": "61412ae9d9dc1869a7d27f47", "molecule": {"@module": "pymatgen.core.structure", "@class": "Molecule", "charge": 0, "spin_multiplicity": 1, "sites": [{"name": "F", "species": [{"element": "F", "occu": 1}], "xyz": [0.995003, -0.336221, 0.08322], "properties": {}}, {"name": "F", "species": [{"element": "F", "occu": 1}], "xyz": [2.88309, -1.436382, 0.012805], "properties": {}}, {"name": "F", "species": [{"element": "F", "occu": 1}], "xyz": [4.263685, 1.194625, -3.25454], "properties": {}}, {"name": "F", "species": [{"element": "F", "occu": 1}], "xyz": [2.516467, 0.663869, -4.502124], "properties": {}}, {"name": "F", "species": [{"element": "F", "occu": 1}], "xyz": [2.698196, 3.324858, -4.063317], "properties": {}}, {"name": "F", "species": [{"element": "F", "occu": 1}], "xyz": [0.979638, 2.457003, -2.969328], "properties": {}}, {"name": "O", "species": [{"element": "O", "occu": 1}], "xyz": [2.766794, 0.587847, -0.955544], "properties": {}}, {"name": "C", "species": [{"element": "C", "occu": 1}], "xyz": [2.803123, 0.495155, 1.427629], "properties": {}}, {"name": "C", "species": [{"element": "C", "occu": 1}], "xyz": [2.367736, -0.156136, 0.120646], "properties": {}}, {"name": "C", "species": [{"element": "C", "occu": 1}], "xyz": [2.432943, 0.06809, -2.248208], "properties": {}}, {"name": "C", "species": [{"element": "C", "occu": 1}], "xyz": [2.895518, 1.09967, -3.263089], "properties": {}}, {"name": "C", "species": [{"element": "C", "occu": 1}], "xyz": [2.236063, 1.917807, 1.544106], "properties": {}}, {"name": "C", "species": [{"element": "C", "occu": 1}], "xyz": [2.405169, -0.377981, 2.626328], "properties": {}}, {"name": "C", "species": [{"element": "C", "occu": 1}], "xyz": [2.346573, 2.518338, -3.025226], "properties": {}}, {"name": "H", "species": [{"element": "H", "occu": 1}], "xyz": [3.897469, 0.546546, 1.365048], "properties": {}}, {"name": "H", "species": [{"element": "H", "occu": 1}], "xyz": [2.95916, -0.870749, -2.443267], "properties": {}}, {"name": "H", "species": [{"element": "H", "occu": 1}], "xyz": [1.353565, -0.073042, -2.345588], "properties": {}}, {"name": "H", "species": [{"element": "H", "occu": 1}], "xyz": [1.140732, 1.899062, 1.564234], "properties": {}}, {"name": "H", "species": [{"element": "H", "occu": 1}], "xyz": [2.585297, 2.377553, 2.474838], "properties": {}}, {"name": "H", "species": [{"element": "H", "occu": 1}], "xyz": [2.555734, 2.549821, 0.710271], "properties": {}}, {"name": "H", "species": [{"element": "H", "occu": 1}], "xyz": [2.818643, -1.387584, 2.546075], "properties": {}}, {"name": "H", "species": [{"element": "H", "occu": 1}], "xyz": [2.782269, 0.075078, 3.549361], "properties": {}}, {"name": "H", "species": [{"element": "H", "occu": 1}], "xyz": [1.31543, -0.456291, 2.706244], "properties": {}}, {"name": "H", "species": [{"element": "H", "occu": 1}], "xyz": [2.723015, 2.94395, -2.092554], "properties": {}}]}, "smiles": "FC(F)(OCC(F)(F)C(F)F)C(C)C", "inchi": "InChI=1S/C7H10F6O/c1-4(2)7(12,13)14-3-6(10,11)5(8)9/h4-5H,3H2,1-2H3", "formula_alphabetical": "C7 F6 H10 O1", "chemsys": "C-F-H-O", "energy": -947.100041943, "esp": {"1": ["F", -0.218078], "2": ["F", -0.236478], "3": ["F", -0.211334], "4": ["F", -0.204153], "5": ["F", -0.211832], "6": ["F", -0.21072], "7": ["O", -0.372909], "8": ["C", 0.298154], "9": ["C", 0.488166], "10": ["C", -0.136427], "11": ["C", 0.39565], "12": ["C", -0.433137], "13": ["C", -0.430758], "14": ["C", 0.356311], "15": ["H", 0.0174], "16": ["H", 0.180556], "17": ["H", 0.142703], "18": ["H", 0.120524], "19": ["H", 0.12009], "20": ["H", 0.104325], "21": ["H", 0.109305], "22": ["H", 0.118591], "23": ["H", 0.117991], "24": ["H", 0.096058]}, "dipole_moment": {"X": 0.4007, "Y": 0.0855, "Z": 3.2077, "Tot": 3.2338}, "functional": "B3LYP", "basis": "6-31+G*", "phase": "gas", "tag": "lis", "state": "successful", "wall_time (s)": 14.533536526025273, "version": "0.0.1", "gauss_version": "ES64L-G16RevC.01", "last_updated": "2021-09-14 23:06:17.626000", "polarizability": 91.01, "fluorinated-solvent": "58422612", "run_ids": ["61412ac89a917f8bf0410384", "61412ae454b516062f7ca5dd"]}