{"_id": "6141187427a91b219bb86ed4", "molecule": {"@module": "pymatgen.core.structure", "@class": "Molecule", "charge": 0, "spin_multiplicity": 1, "sites": [{"name": "F", "species": [{"element": "F", "occu": 1}], "xyz": [4.647459, -1.180307, -0.101418], "properties": {}}, {"name": "F", "species": [{"element": "F", "occu": 1}], "xyz": [4.634942, -0.955248, -2.302096], "properties": {}}, {"name": "O", "species": [{"element": "O", "occu": 1}], "xyz": [2.232538, 0.585756, -2.036434], "properties": {}}, {"name": "C", "species": [{"element": "C", "occu": 1}], "xyz": [0.84479, 0.492245, -2.413706], "properties": {}}, {"name": "C", "species": [{"element": "C", "occu": 1}], "xyz": [2.700503, -0.344528, -1.082528], "properties": {}}, {"name": "C", "species": [{"element": "C", "occu": 1}], "xyz": [4.223915, -0.344357, -1.129835], "properties": {}}, {"name": "C", "species": [{"element": "C", "occu": 1}], "xyz": [0.568703, -0.753693, -3.259944], "properties": {}}, {"name": "C", "species": [{"element": "C", "occu": 1}], "xyz": [-0.091532, 0.61106, -1.208775], "properties": {}}, {"name": "C", "species": [{"element": "C", "occu": 1}], "xyz": [4.904418, 0.996294, -1.003859], "properties": {}}, {"name": "H", "species": [{"element": "H", "occu": 1}], "xyz": [0.716601, 1.377504, -3.046714], "properties": {}}, {"name": "H", "species": [{"element": "H", "occu": 1}], "xyz": [2.369138, -1.370277, -1.288752], "properties": {}}, {"name": "H", "species": [{"element": "H", "occu": 1}], "xyz": [2.39065, -0.07284, -0.063154], "properties": {}}, {"name": "H", "species": [{"element": "H", "occu": 1}], "xyz": [0.620062, -1.674472, -2.667139], "properties": {}}, {"name": "H", "species": [{"element": "H", "occu": 1}], "xyz": [-0.438206, -0.696194, -3.690215], "properties": {}}, {"name": "H", "species": [{"element": "H", "occu": 1}], "xyz": [1.294168, -0.825871, -4.07668], "properties": {}}, {"name": "H", "species": [{"element": "H", "occu": 1}], "xyz": [0.162905, 1.490679, -0.606951], "properties": {}}, {"name": "H", "species": [{"element": "H", "occu": 1}], "xyz": [-1.12813, 0.714499, -1.54975], "properties": {}}, {"name": "H", "species": [{"element": "H", "occu": 1}], "xyz": [-0.041998, -0.277351, -0.567514], "properties": {}}, {"name": "H", "species": [{"element": "H", "occu": 1}], "xyz": [4.636071, 1.460233, -0.050078], "properties": {}}, {"name": "H", "species": [{"element": "H", "occu": 1}], "xyz": [5.987691, 0.853537, -1.04678], "properties": {}}, {"name": "H", "species": [{"element": "H", "occu": 1}], "xyz": [4.580753, 1.64382, -1.821676], "properties": {}}]}, "smiles": "FC(F)(COC(C)C)C", "inchi": "InChI=1S/C6H12F2O/c1-5(2)9-4-6(3,7)8/h5H,4H2,1-3H3", "formula_alphabetical": "C6 F2 H12 O1", "chemsys": "C-F-H-O", "energy": -510.800082561, "esp": {"1": ["F", -0.322535], "2": ["F", -0.27588], "3": ["O", -0.509079], "4": ["C", 0.626994], "5": ["C", -0.067229], "6": ["C", 0.686855], "7": ["C", -0.466239], "8": ["C", -0.464827], "9": ["C", -0.456892], "10": ["H", -0.025243], "11": ["H", 0.080869], "12": ["H", 0.088773], "13": ["H", 0.125573], "14": ["H", 0.099181], "15": ["H", 0.125013], "16": ["H", 0.121199], "17": ["H", 0.105145], "18": ["H", 0.112164], "19": ["H", 0.133534], "20": ["H", 0.14299], "21": ["H", 0.139634]}, "dipole_moment": {"X": -2.541, "Y": 1.3901, "Z": 0.3536, "Tot": 2.9179}, "functional": "B3LYP", "basis": "6-31+G*", "phase": "gas", "tag": "lis", "state": "successful", "wall_time (s)": 8.368260908056982, "version": "0.0.1", "gauss_version": "ES64L-G16RevC.01", "last_updated": "2021-09-14 21:47:32.532000", "polarizability": 77.15, "fluorinated-solvent": "89981332", "run_ids": ["6141184b89962ed2bfc53811", "6141186abe8136a1b3a0645f"]}