{"_id": "61412534d7f592e078b42f74", "molecule": {"@module": "pymatgen.core.structure", "@class": "Molecule", "charge": 0, "spin_multiplicity": 1, "sites": [{"name": "F", "species": [{"element": "F", "occu": 1}], "xyz": [0.952039, -0.4061, -0.199007], "properties": {}}, {"name": "F", "species": [{"element": "F", "occu": 1}], "xyz": [2.429632, 1.202325, -0.201864], "properties": {}}, {"name": "F", "species": [{"element": "F", "occu": 1}], "xyz": [4.327806, -0.5239, -1.291967], "properties": {}}, {"name": "F", "species": [{"element": "F", "occu": 1}], "xyz": [2.873732, -2.151982, -1.268433], "properties": {}}, {"name": "F", "species": [{"element": "F", "occu": 1}], "xyz": [2.857064, -2.189319, 3.330415], "properties": {}}, {"name": "F", "species": [{"element": "F", "occu": 1}], "xyz": [4.362538, -0.612072, 3.335656], "properties": {}}, {"name": "F", "species": [{"element": "F", "occu": 1}], "xyz": [2.554414, -0.397387, 4.546871], "properties": {}}, {"name": "F", "species": [{"element": "F", "occu": 1}], "xyz": [3.559182, -1.637919, -3.904547], "properties": {}}, {"name": "F", "species": [{"element": "F", "occu": 1}], "xyz": [2.098366, -0.189044, -4.628506], "properties": {}}, {"name": "F", "species": [{"element": "F", "occu": 1}], "xyz": [4.008289, 0.48787, -3.841779], "properties": {}}, {"name": "O", "species": [{"element": "O", "occu": 1}], "xyz": [2.836127, -0.651373, 1.010556], "properties": {}}, {"name": "O", "species": [{"element": "O", "occu": 1}], "xyz": [2.407552, -0.310126, -2.478527], "properties": {}}, {"name": "C", "species": [{"element": "C", "occu": 1}], "xyz": [2.292589, -0.15484, -0.11905], "properties": {}}, {"name": "C", "species": [{"element": "C", "occu": 1}], "xyz": [3.008316, -0.809875, -1.337766], "properties": {}}, {"name": "C", "species": [{"element": "C", "occu": 1}], "xyz": [2.300855, -0.147625, 2.240195], "properties": {}}, {"name": "C", "species": [{"element": "C", "occu": 1}], "xyz": [3.037783, -0.854879, 3.366184], "properties": {}}, {"name": "C", "species": [{"element": "C", "occu": 1}], "xyz": [3.03139, -0.420676, -3.704844], "properties": {}}, {"name": "H", "species": [{"element": "H", "occu": 1}], "xyz": [2.474302, 0.928072, 2.328931], "properties": {}}, {"name": "H", "species": [{"element": "H", "occu": 1}], "xyz": [1.234533, -0.373771, 2.323313], "properties": {}}]}, "smiles": "FC(F)(OCC(F)(F)F)C(F)(F)OC(F)(F)F", "inchi": "InChI=1S/C5H2F10O2/c6-2(7,8)1-16-3(9,10)4(11,12)17-5(13,14)15/h1H2", "formula_alphabetical": "C5 F10 H2 O2", "chemsys": "C-F-H-O", "energy": -1340.67217092, "esp": {"1": ["F", -0.187893], "2": ["F", -0.18813], "3": ["F", -0.152951], "4": ["F", -0.150204], "5": ["F", -0.191942], "6": ["F", -0.191507], "7": ["F", -0.228255], "8": ["F", -0.183336], "9": ["F", -0.184507], "10": ["F", -0.194309], "11": ["O", -0.31179], "12": ["O", -0.354127], "13": ["C", 0.520035], "14": ["C", 0.421582], "15": ["C", -0.163595], "16": ["C", 0.653263], "17": ["C", 0.763232], "18": ["H", 0.162085], "19": ["H", 0.16235]}, "dipole_moment": {"X": -1.269, "Y": 1.179, "Z": 0.7749, "Tot": 1.8976}, "functional": "B3LYP", "basis": "6-31+G*", "phase": "gas", "tag": "lis", "state": "successful", "wall_time (s)": 14.602038442972116, "version": "0.0.1", "gauss_version": "ES64L-G16RevC.01", "last_updated": "2021-09-14 22:41:55.961000", "polarizability": 76.88, "fluorinated-solvent": "150091835", "run_ids": ["6141251996cca37e931e9c4c", "6141252e7182af5e3901d1f2"]}