{"_id": "613a5638c0d474f81518a63e", "molecule": {"@module": "pymatgen.core.structure", "@class": "Molecule", "charge": 0, "spin_multiplicity": 1, "sites": [{"name": "F", "species": [{"element": "F", "occu": 1}], "xyz": [1.296366, 2.124712, -1.778261], "properties": {}}, {"name": "F", "species": [{"element": "F", "occu": 1}], "xyz": [2.519391, 2.670161, -0.054043], "properties": {}}, {"name": "F", "species": [{"element": "F", "occu": 1}], "xyz": [1.169375, 0.961318, 0.060302], "properties": {}}, {"name": "F", "species": [{"element": "F", "occu": 1}], "xyz": [5.12599, 0.442788, -2.45046], "properties": {}}, {"name": "F", "species": [{"element": "F", "occu": 1}], "xyz": [3.671296, 1.859244, -3.247085], "properties": {}}, {"name": "F", "species": [{"element": "F", "occu": 1}], "xyz": [4.819917, 2.363546, -1.460823], "properties": {}}, {"name": "F", "species": [{"element": "F", "occu": 1}], "xyz": [2.692255, -1.741289, 0.496703], "properties": {}}, {"name": "F", "species": [{"element": "F", "occu": 1}], "xyz": [1.089797, -2.520299, -0.761231], "properties": {}}, {"name": "F", "species": [{"element": "F", "occu": 1}], "xyz": [2.942296, -3.651116, -0.529122], "properties": {}}, {"name": "F", "species": [{"element": "F", "occu": 1}], "xyz": [3.469658, -1.599557, -4.151378], "properties": {}}, {"name": "F", "species": [{"element": "F", "occu": 1}], "xyz": [3.351812, -3.56328, -3.210367], "properties": {}}, {"name": "F", "species": [{"element": "F", "occu": 1}], "xyz": [1.537419, -2.391096, -3.526984], "properties": {}}, {"name": "O", "species": [{"element": "O", "occu": 1}], "xyz": [2.507486, -0.358193, -1.919606], "properties": {}}, {"name": "C", "species": [{"element": "C", "occu": 1}], "xyz": [3.134584, 0.690763, -1.215269], "properties": {}}, {"name": "C", "species": [{"element": "C", "occu": 1}], "xyz": [3.06154, -1.652218, -1.828968], "properties": {}}, {"name": "C", "species": [{"element": "C", "occu": 1}], "xyz": [2.007017, 1.634599, -0.750707], "properties": {}}, {"name": "C", "species": [{"element": "C", "occu": 1}], "xyz": [4.189915, 1.369303, -2.114546], "properties": {}}, {"name": "C", "species": [{"element": "C", "occu": 1}], "xyz": [2.419723, -2.416304, -0.651186], "properties": {}}, {"name": "C", "species": [{"element": "C", "occu": 1}], "xyz": [2.837578, -2.315975, -3.20278], "properties": {}}, {"name": "H", "species": [{"element": "H", "occu": 1}], "xyz": [3.647833, 0.3478, -0.311539], "properties": {}}, {"name": "H", "species": [{"element": "H", "occu": 1}], "xyz": [4.142742, -1.640082, -1.659662], "properties": {}}]}, "smiles": "FC(F)(F)C(OC(C(F)(F)F)C(F)(F)F)C(F)(F)F", "inchi": "InChI=1S/C6H2F12O/c7-3(8,9)1(4(10,11)12)19-2(5(13,14)15)6(16,17)18/h1-2H", "formula_alphabetical": "C6 F12 H2 O1", "chemsys": "C-F-H-O", "energy": -1503.24329439, "esp": {"1": ["F", -0.159501], "2": ["F", -0.183989], "3": ["F", -0.166902], "4": ["F", -0.188461], "5": ["F", -0.151053], "6": ["F", -0.19116], "7": ["F", -0.198548], "8": ["F", -0.162639], "9": ["F", -0.200521], "10": ["F", -0.17367], "11": ["F", -0.190156], "12": ["F", -0.165637], "13": ["O", -0.18782], "14": ["C", -0.268148], "15": ["C", -0.290555], "16": ["C", 0.583532], "17": ["C", 0.610504], "18": ["C", 0.65137], "19": ["C", 0.611727], "20": ["H", 0.211376], "21": ["H", 0.21025]}, "dipole_moment": {"X": 1.7897, "Y": -0.3709, "Z": 1.2037, "Tot": 2.1885}, "functional": "B3LYP", "basis": "6-31+G*", "phase": "gas", "tag": "lis", "state": "successful", "wall_time (s)": 20.85472128004767, "version": "0.0.1", "gauss_version": "ES64L-G16RevC.01", "last_updated": "2021-09-09 18:45:12.444000", "polarizability": 84.39, "fluorinated-solvent": "22676946", "run_ids": ["613a4aeb3ff469768f6f00d4", "613a56334c3fcfff51141d7b"]}