{"_id": "614129c992f58295a056145a", "molecule": {"@module": "pymatgen.core.structure", "@class": "Molecule", "charge": 0, "spin_multiplicity": 1, "sites": [{"name": "F", "species": [{"element": "F", "occu": 1}], "xyz": [2.928385, -1.151929, 0.68114], "properties": {}}, {"name": "F", "species": [{"element": "F", "occu": 1}], "xyz": [3.221002, 1.024066, 0.402914], "properties": {}}, {"name": "F", "species": [{"element": "F", "occu": 1}], "xyz": [3.826939, 0.53259, -3.974506], "properties": {}}, {"name": "F", "species": [{"element": "F", "occu": 1}], "xyz": [1.869912, -0.434589, -4.112892], "properties": {}}, {"name": "F", "species": [{"element": "F", "occu": 1}], "xyz": [2.093645, 1.861423, -5.610178], "properties": {}}, {"name": "F", "species": [{"element": "F", "occu": 1}], "xyz": [0.631849, 2.069396, -3.965254], "properties": {}}, {"name": "O", "species": [{"element": "O", "occu": 1}], "xyz": [2.367833, 0.768336, -2.271253], "properties": {}}, {"name": "C", "species": [{"element": "C", "occu": 1}], "xyz": [2.848455, -0.339289, -1.486291], "properties": {}}, {"name": "C", "species": [{"element": "C", "occu": 1}], "xyz": [2.478507, -0.054525, -0.03606], "properties": {}}, {"name": "C", "species": [{"element": "C", "occu": 1}], "xyz": [2.508035, 0.666519, -3.610632], "properties": {}}, {"name": "C", "species": [{"element": "C", "occu": 1}], "xyz": [1.018182, 0.18673, 0.257516], "properties": {}}, {"name": "C", "species": [{"element": "C", "occu": 1}], "xyz": [1.957002, 1.951568, -4.260091], "properties": {}}, {"name": "H", "species": [{"element": "H", "occu": 1}], "xyz": [3.935265, -0.42206, -1.570428], "properties": {}}, {"name": "H", "species": [{"element": "H", "occu": 1}], "xyz": [2.369838, -1.267793, -1.808971], "properties": {}}, {"name": "H", "species": [{"element": "H", "occu": 1}], "xyz": [0.429559, -0.68695, -0.036948], "properties": {}}, {"name": "H", "species": [{"element": "H", "occu": 1}], "xyz": [0.897374, 0.36089, 1.329939], "properties": {}}, {"name": "H", "species": [{"element": "H", "occu": 1}], "xyz": [0.669138, 1.059861, -0.298637], "properties": {}}, {"name": "H", "species": [{"element": "H", "occu": 1}], "xyz": [2.489659, 2.834665, -3.896958], "properties": {}}]}, "smiles": "FC(F)(COC(F)(F)C(F)F)C", "inchi": "InChI=1S/C5H6F6O/c1-4(8,9)2-12-5(10,11)3(6)7/h3H,2H2,1H3", "formula_alphabetical": "C5 F6 H6 O1", "chemsys": "C-F-H-O", "energy": -868.469184944, "esp": {"1": ["F", -0.296891], "2": ["F", -0.265049], "3": ["F", -0.206241], "4": ["F", -0.170666], "5": ["F", -0.191496], "6": ["F", -0.18753], "7": ["O", -0.362335], "8": ["C", 0.00598], "9": ["C", 0.607225], "10": ["C", 0.451983], "11": ["C", -0.387091], "12": ["C", 0.278274], "13": ["H", 0.112825], "14": ["H", 0.101307], "15": ["H", 0.122773], "16": ["H", 0.141424], "17": ["H", 0.119362], "18": ["H", 0.126147]}, "dipole_moment": {"X": -0.6789, "Y": 0.1383, "Z": 0.9852, "Tot": 1.2044}, "functional": "B3LYP", "basis": "6-31+G*", "phase": "gas", "tag": "lis", "state": "successful", "wall_time (s)": 8.948172005009837, "version": "0.0.1", "gauss_version": "ES64L-G16RevC.01", "last_updated": "2021-09-14 23:01:29.124000", "polarizability": 68.46, "fluorinated-solvent": "58114496", "run_ids": ["614129b39ccdef3e1c602bb9", "614129c350b7c2f150f5a933"]}