{"_id": "613a4f2b20d3c2a1b1a7602c", "molecule": {"@module": "pymatgen.core.structure", "@class": "Molecule", "charge": 0, "spin_multiplicity": 1, "sites": [{"name": "F", "species": [{"element": "F", "occu": 1}], "xyz": [3.465492, -0.320955, -0.785054], "properties": {}}, {"name": "F", "species": [{"element": "F", "occu": 1}], "xyz": [4.576246, 0.269623, 1.033571], "properties": {}}, {"name": "F", "species": [{"element": "F", "occu": 1}], "xyz": [4.177641, -2.344657, 2.741226], "properties": {}}, {"name": "F", "species": [{"element": "F", "occu": 1}], "xyz": [3.32709, -0.43315, 3.471513], "properties": {}}, {"name": "O", "species": [{"element": "O", "occu": 1}], "xyz": [2.109558, -2.294375, 0.663557], "properties": {}}, {"name": "C", "species": [{"element": "C", "occu": 1}], "xyz": [2.695267, -1.167967, 1.278309], "properties": {}}, {"name": "C", "species": [{"element": "C", "occu": 1}], "xyz": [0.678664, -2.243891, 0.450118], "properties": {}}, {"name": "C", "species": [{"element": "C", "occu": 1}], "xyz": [3.908452, -0.768068, 0.436842], "properties": {}}, {"name": "C", "species": [{"element": "C", "occu": 1}], "xyz": [3.057449, -1.547796, 2.719557], "properties": {}}, {"name": "C", "species": [{"element": "C", "occu": 1}], "xyz": [0.33557, -1.348443, -0.739147], "properties": {}}, {"name": "C", "species": [{"element": "C", "occu": 1}], "xyz": [0.23938, -3.687435, 0.24556], "properties": {}}, {"name": "H", "species": [{"element": "H", "occu": 1}], "xyz": [2.017787, -0.305181, 1.319929], "properties": {}}, {"name": "H", "species": [{"element": "H", "occu": 1}], "xyz": [0.207737, -1.846194, 1.364392], "properties": {}}, {"name": "H", "species": [{"element": "H", "occu": 1}], "xyz": [4.606563, -1.590775, 0.269567], "properties": {}}, {"name": "H", "species": [{"element": "H", "occu": 1}], "xyz": [2.243852, -2.101326, 3.198429], "properties": {}}, {"name": "H", "species": [{"element": "H", "occu": 1}], "xyz": [0.806223, -1.737749, -1.64831], "properties": {}}, {"name": "H", "species": [{"element": "H", "occu": 1}], "xyz": [-0.750417, -1.31911, -0.887024], "properties": {}}, {"name": "H", "species": [{"element": "H", "occu": 1}], "xyz": [0.685928, -0.321608, -0.592877], "properties": {}}, {"name": "H", "species": [{"element": "H", "occu": 1}], "xyz": [0.50176, -4.299192, 1.114737], "properties": {}}, {"name": "H", "species": [{"element": "H", "occu": 1}], "xyz": [-0.844409, -3.737483, 0.092594], "properties": {}}, {"name": "H", "species": [{"element": "H", "occu": 1}], "xyz": [0.735127, -4.109548, -0.635838], "properties": {}}]}, "smiles": "FC(F)C(OC(C)C)C(F)F", "inchi": "InChI=1S/C6H10F4O/c1-3(2)11-4(5(7)8)6(9)10/h3-6H,1-2H3", "formula_alphabetical": "C6 F4 H10 O1", "chemsys": "C-F-H-O", "energy": -709.276857454, "esp": {"1": ["F", -0.25319], "2": ["F", -0.246719], "3": ["F", -0.229383], "4": ["F", -0.242303], "5": ["O", -0.532753], "6": ["C", 0.044223], "7": ["C", 0.679855], "8": ["C", 0.448927], "9": ["C", 0.365628], "10": ["C", -0.566526], "11": ["C", -0.473304], "12": ["H", 0.09355], "13": ["H", -0.065341], "14": ["H", 0.089163], "15": ["H", 0.092801], "16": ["H", 0.159985], "17": ["H", 0.123581], "18": ["H", 0.15009], "19": ["H", 0.113988], "20": ["H", 0.10998], "21": ["H", 0.137748]}, "dipole_moment": {"X": -3.5589, "Y": -1.4308, "Z": -0.362, "Tot": 3.8528}, "functional": "B3LYP", "basis": "6-31+G*", "phase": "gas", "tag": "lis", "state": "successful", "wall_time (s)": 9.720168660976924, "version": "0.0.1", "gauss_version": "ES64L-G16RevC.01", "last_updated": "2021-09-09 18:15:07.230000", "polarizability": 78.8, "fluorinated-solvent": "53818048", "run_ids": ["613a4a655fe2707d574961c3", "613a4f210c056389a2ec3d94"]}