{"_id": "613a571428ac571ef7e9d978", "molecule": {"@module": "pymatgen.core.structure", "@class": "Molecule", "charge": 0, "spin_multiplicity": 1, "sites": [{"name": "F", "species": [{"element": "F", "occu": 1}], "xyz": [0.903305, -2.661174, -0.82088], "properties": {}}, {"name": "F", "species": [{"element": "F", "occu": 1}], "xyz": [2.983062, -3.295719, -0.983673], "properties": {}}, {"name": "F", "species": [{"element": "F", "occu": 1}], "xyz": [2.262899, -1.604753, -2.167849], "properties": {}}, {"name": "F", "species": [{"element": "F", "occu": 1}], "xyz": [3.178091, -1.182901, 4.781744], "properties": {}}, {"name": "F", "species": [{"element": "F", "occu": 1}], "xyz": [1.259678, -1.947767, 3.978875], "properties": {}}, {"name": "O", "species": [{"element": "O", "occu": 1}], "xyz": [2.45565, -1.878403, 1.372063], "properties": {}}, {"name": "C", "species": [{"element": "C", "occu": 1}], "xyz": [2.558798, -1.230414, 0.12833], "properties": {}}, {"name": "C", "species": [{"element": "C", "occu": 1}], "xyz": [2.855572, -1.068064, 2.461112], "properties": {}}, {"name": "C", "species": [{"element": "C", "occu": 1}], "xyz": [2.169067, -2.219009, -0.959762], "properties": {}}, {"name": "C", "species": [{"element": "C", "occu": 1}], "xyz": [2.604195, -1.861507, 3.729964], "properties": {}}, {"name": "H", "species": [{"element": "H", "occu": 1}], "xyz": [3.586453, -0.897057, -0.079383], "properties": {}}, {"name": "H", "species": [{"element": "H", "occu": 1}], "xyz": [1.880187, -0.36794, 0.057495], "properties": {}}, {"name": "H", "species": [{"element": "H", "occu": 1}], "xyz": [3.927089, -0.823835, 2.403036], "properties": {}}, {"name": "H", "species": [{"element": "H", "occu": 1}], "xyz": [2.275343, -0.134448, 2.510287], "properties": {}}, {"name": "H", "species": [{"element": "H", "occu": 1}], "xyz": [3.011339, -2.876235, 3.702091], "properties": {}}]}, "smiles": "FC(F)(F)COCC(F)F", "inchi": "InChI=1S/C4H5F5O/c5-3(6)1-10-2-4(7,8)9/h3H,1-2H2", "formula_alphabetical": "C4 F5 H5 O1", "chemsys": "C-F-H-O", "energy": -729.898765192, "esp": {"1": ["F", -0.188343], "2": ["F", -0.194082], "3": ["F", -0.229698], "4": ["F", -0.275136], "5": ["F", -0.242025], "6": ["O", -0.337639], "7": ["C", -0.0945], "8": ["C", -0.037479], "9": ["C", 0.606666], "10": ["C", 0.473208], "11": ["H", 0.117813], "12": ["H", 0.125403], "13": ["H", 0.087834], "14": ["H", 0.11658], "15": ["H", 0.071399]}, "dipole_moment": {"X": 1.9494, "Y": 1.9877, "Z": -0.2614, "Tot": 2.7963}, "functional": "B3LYP", "basis": "6-31+G*", "phase": "gas", "tag": "lis", "state": "successful", "wall_time (s)": 7.187408451922238, "version": "0.0.1", "gauss_version": "ES64L-G16RevC.01", "last_updated": "2021-09-09 18:48:52.436000", "polarizability": 56.92, "fluorinated-solvent": "54473794", "run_ids": ["613a4afa413b4066fc32693a", "613a5706291efbf05b069590"]}