{"_id": "613a57a5a7f6c6dbbf11926d", "molecule": {"@module": "pymatgen.core.structure", "@class": "Molecule", "charge": 0, "spin_multiplicity": 1, "sites": [{"name": "F", "species": [{"element": "F", "occu": 1}], "xyz": [1.932404, 3.524725, -1.564402], "properties": {}}, {"name": "F", "species": [{"element": "F", "occu": 1}], "xyz": [0.749721, 2.066041, -0.438403], "properties": {}}, {"name": "F", "species": [{"element": "F", "occu": 1}], "xyz": [3.570527, -2.965785, -3.205186], "properties": {}}, {"name": "F", "species": [{"element": "F", "occu": 1}], "xyz": [4.651434, -2.26004, -1.436619], "properties": {}}, {"name": "F", "species": [{"element": "F", "occu": 1}], "xyz": [3.934768, 3.426151, 0.332911], "properties": {}}, {"name": "F", "species": [{"element": "F", "occu": 1}], "xyz": [1.451732, -3.780452, -1.635437], "properties": {}}, {"name": "F", "species": [{"element": "F", "occu": 1}], "xyz": [2.4058, 5.663483, 0.347117], "properties": {}}, {"name": "F", "species": [{"element": "F", "occu": 1}], "xyz": [0.384624, 4.862336, 0.301084], "properties": {}}, {"name": "F", "species": [{"element": "F", "occu": 1}], "xyz": [1.197488, 5.63589, 2.161362], "properties": {}}, {"name": "F", "species": [{"element": "F", "occu": 1}], "xyz": [3.020951, -5.760186, -2.616098], "properties": {}}, {"name": "F", "species": [{"element": "F", "occu": 1}], "xyz": [5.024295, -5.064001, -2.135369], "properties": {}}, {"name": "F", "species": [{"element": "F", "occu": 1}], "xyz": [4.113431, -6.637438, -0.946028], "properties": {}}, {"name": "O", "species": [{"element": "O", "occu": 1}], "xyz": [2.768517, 1.460054, -1.233667], "properties": {}}, {"name": "O", "species": [{"element": "O", "occu": 1}], "xyz": [2.67527, -1.314906, -1.962465], "properties": {}}, {"name": "O", "species": [{"element": "O", "occu": 1}], "xyz": [1.961793, 3.732377, 1.448524], "properties": {}}, {"name": "O", "species": [{"element": "O", "occu": 1}], "xyz": [3.356112, -4.618885, -0.686222], "properties": {}}, {"name": "C", "species": [{"element": "C", "occu": 1}], "xyz": [2.35413, 0.975385, -2.532378], "properties": {}}, {"name": "C", "species": [{"element": "C", "occu": 1}], "xyz": [3.160686, -0.263606, -2.829912], "properties": {}}, {"name": "C", "species": [{"element": "C", "occu": 1}], "xyz": [2.038193, 2.464274, -0.704191], "properties": {}}, {"name": "C", "species": [{"element": "C", "occu": 1}], "xyz": [3.39023, -2.459792, -1.94536], "properties": {}}, {"name": "C", "species": [{"element": "C", "occu": 1}], "xyz": [2.710803, 2.879622, 0.626651], "properties": {}}, {"name": "C", "species": [{"element": "C", "occu": 1}], "xyz": [2.643496, -3.46337, -1.033573], "properties": {}}, {"name": "C", "species": [{"element": "C", "occu": 1}], "xyz": [1.500725, 4.960233, 1.046503], "properties": {}}, {"name": "C", "species": [{"element": "C", "occu": 1}], "xyz": [3.866308, -5.499566, -1.605974], "properties": {}}, {"name": "H", "species": [{"element": "H", "occu": 1}], "xyz": [1.283805, 0.748239, -2.518986], "properties": {}}, {"name": "H", "species": [{"element": "H", "occu": 1}], "xyz": [2.561575, 1.742506, -3.285365], "properties": {}}, {"name": "H", "species": [{"element": "H", "occu": 1}], "xyz": [3.012261, -0.561084, -3.872968], "properties": {}}, {"name": "H", "species": [{"element": "H", "occu": 1}], "xyz": [4.224358, -0.089106, -2.641459], "properties": {}}, {"name": "H", "species": [{"element": "H", "occu": 1}], "xyz": [2.859409, 1.983245, 1.23028], "properties": {}}, {"name": "H", "species": [{"element": "H", "occu": 1}], "xyz": [2.439135, -2.974262, -0.080183], "properties": {}}]}, "smiles": "FC(F)(OCCOC(F)(F)[C@@H](F)OC(F)(F)F)[C@@H](F)OC(F)(F)F", "inchi": "InChI=1S/C8H6F12O4/c9-3(23-7(15,16)17)5(11,12)21-1-2-22-6(13,14)4(10)24-8(18,19)20/h3-4H,1-2H2/t3-,4-/m0/s1", "formula_alphabetical": "C8 F12 H6 O4", "chemsys": "C-F-H-O", "energy": -1807.53743284, "esp": {"1": ["F", -0.158073], "2": ["F", -0.184353], "3": ["F", -0.143175], "4": ["F", -0.168658], "5": ["F", -0.198263], "6": ["F", -0.196906], "7": ["F", -0.173759], "8": ["F", -0.193573], "9": ["F", -0.178202], "10": ["F", -0.17439], "11": ["F", -0.190581], "12": ["F", -0.177725], "13": ["O", -0.359081], "14": ["O", -0.3335], "15": ["O", -0.362275], "16": ["O", -0.365578], "17": ["C", 0.121375], "18": ["C", 0.066712], "19": ["C", 0.382835], "20": ["C", 0.317391], "21": ["C", 0.305944], "22": ["C", 0.330298], "23": ["C", 0.6968], "24": ["C", 0.694937], "25": ["H", 0.101253], "26": ["H", 0.071671], "27": ["H", 0.082954], "28": ["H", 0.115093], "29": ["H", 0.138173], "30": ["H", 0.132656]}, "dipole_moment": {"X": 0.0285, "Y": 0.2953, "Z": -1.1367, "Tot": 1.1748}, "functional": "B3LYP", "basis": "6-31+G*", "phase": "gas", "tag": "lis", "state": "successful", "wall_time (s)": 28.63957029802259, "version": "0.0.1", "gauss_version": "ES64L-G16RevC.01", "last_updated": "2021-09-09 18:51:17.218000", "polarizability": 121.71, "fluorinated-solvent": "21902258", "run_ids": ["613a4b0107e9d3825f73d18b", "613a579d3d81c58aa6a5b27a"]}