{"_id": "614115e48b6480bc2880cef5", "molecule": {"@module": "pymatgen.core.structure", "@class": "Molecule", "charge": 0, "spin_multiplicity": 1, "sites": [{"name": "F", "species": [{"element": "F", "occu": 1}], "xyz": [3.054602, 1.740016, -0.273126], "properties": {}}, {"name": "F", "species": [{"element": "F", "occu": 1}], "xyz": [1.376198, 0.405181, -0.675176], "properties": {}}, {"name": "F", "species": [{"element": "F", "occu": 1}], "xyz": [3.402796, -0.205024, -1.204413], "properties": {}}, {"name": "F", "species": [{"element": "F", "occu": 1}], "xyz": [-1.569961, -0.783217, 3.579707], "properties": {}}, {"name": "F", "species": [{"element": "F", "occu": 1}], "xyz": [-1.649598, -0.955391, 1.396498], "properties": {}}, {"name": "O", "species": [{"element": "O", "occu": 1}], "xyz": [0.361583, -1.022159, 2.428991], "properties": {}}, {"name": "C", "species": [{"element": "C", "occu": 1}], "xyz": [2.164995, 0.539327, 2.257574], "properties": {}}, {"name": "C", "species": [{"element": "C", "occu": 1}], "xyz": [2.862494, -0.198068, 1.102796], "properties": {}}, {"name": "C", "species": [{"element": "C", "occu": 1}], "xyz": [0.649378, 0.396306, 2.295453], "properties": {}}, {"name": "C", "species": [{"element": "C", "occu": 1}], "xyz": [2.669617, 0.434776, -0.257952], "properties": {}}, {"name": "C", "species": [{"element": "C", "occu": 1}], "xyz": [-0.940606, -1.371744, 2.501424], "properties": {}}, {"name": "H", "species": [{"element": "H", "occu": 1}], "xyz": [2.570875, 0.149374, 3.198123], "properties": {}}, {"name": "H", "species": [{"element": "H", "occu": 1}], "xyz": [2.409197, 1.607664, 2.222411], "properties": {}}, {"name": "H", "species": [{"element": "H", "occu": 1}], "xyz": [2.513368, -1.232547, 1.034787], "properties": {}}, {"name": "H", "species": [{"element": "H", "occu": 1}], "xyz": [3.94339, -0.220724, 1.275024], "properties": {}}, {"name": "H", "species": [{"element": "H", "occu": 1}], "xyz": [0.238392, 0.924959, 3.161344], "properties": {}}, {"name": "H", "species": [{"element": "H", "occu": 1}], "xyz": [0.174715, 0.770099, 1.385216], "properties": {}}, {"name": "H", "species": [{"element": "H", "occu": 1}], "xyz": [-1.023917, -2.455455, 2.591236], "properties": {}}]}, "smiles": "FC(F)(F)CCCOC(F)F", "inchi": "InChI=1S/C5H7F5O/c6-4(7)11-3-1-2-5(8,9)10/h4H,1-3H2", "formula_alphabetical": "C5 F5 H7 O1", "chemsys": "C-F-H-O", "energy": -769.238144618, "esp": {"1": ["F", -0.217954], "2": ["F", -0.198425], "3": ["F", -0.233205], "4": ["F", -0.245806], "5": ["F", -0.233781], "6": ["O", -0.386379], "7": ["C", -0.137795], "8": ["C", -0.131469], "9": ["C", 0.137971], "10": ["C", 0.59405], "11": ["C", 0.481482], "12": ["H", 0.092704], "13": ["H", 0.063032], "14": ["H", 0.083158], "15": ["H", 0.088905], "16": ["H", 0.071683], "17": ["H", 0.071192], "18": ["H", 0.100635]}, "dipole_moment": {"X": 1.5857, "Y": -0.6183, "Z": 2.2054, "Tot": 2.7858}, "functional": "B3LYP", "basis": "6-31+G*", "phase": "gas", "tag": "lis", "state": "successful", "wall_time (s)": 8.499970486038364, "version": "0.0.1", "gauss_version": "ES64L-G16RevC.01", "last_updated": "2021-09-14 21:36:36.039000", "polarizability": 67.18, "fluorinated-solvent": "87379393", "run_ids": ["614115c4bb8784cc782a9c14", "614115daac65317a7320ef4c"]}