{"_id": "61410d415c60b9040ad42d38", "molecule": {"@module": "pymatgen.core.structure", "@class": "Molecule", "charge": 0, "spin_multiplicity": 1, "sites": [{"name": "F", "species": [{"element": "F", "occu": 1}], "xyz": [1.036025, -0.329121, -0.4661], "properties": {}}, {"name": "F", "species": [{"element": "F", "occu": 1}], "xyz": [2.997659, -0.997313, -1.156391], "properties": {}}, {"name": "F", "species": [{"element": "F", "occu": 1}], "xyz": [1.010267, -2.463137, 1.306191], "properties": {}}, {"name": "F", "species": [{"element": "F", "occu": 1}], "xyz": [3.008447, -3.071168, 0.68113], "properties": {}}, {"name": "F", "species": [{"element": "F", "occu": 1}], "xyz": [2.63779, -2.517489, 2.757988], "properties": {}}, {"name": "F", "species": [{"element": "F", "occu": 1}], "xyz": [2.232938, 3.880046, -0.487652], "properties": {}}, {"name": "O", "species": [{"element": "O", "occu": 1}], "xyz": [2.800891, 1.057869, -0.254363], "properties": {}}, {"name": "C", "species": [{"element": "C", "occu": 1}], "xyz": [2.688876, -0.75987, 1.209153], "properties": {}}, {"name": "C", "species": [{"element": "C", "occu": 1}], "xyz": [2.38185, -0.231403, -0.185659], "properties": {}}, {"name": "C", "species": [{"element": "C", "occu": 1}], "xyz": [2.326569, -2.212134, 1.469585], "properties": {}}, {"name": "C", "species": [{"element": "C", "occu": 1}], "xyz": [2.5707, 1.744841, -1.504249], "properties": {}}, {"name": "C", "species": [{"element": "C", "occu": 1}], "xyz": [3.071684, 3.159375, -1.346586], "properties": {}}, {"name": "H", "species": [{"element": "H", "occu": 1}], "xyz": [3.760007, -0.645476, 1.388831], "properties": {}}, {"name": "H", "species": [{"element": "H", "occu": 1}], "xyz": [2.146859, -0.143135, 1.929368], "properties": {}}, {"name": "H", "species": [{"element": "H", "occu": 1}], "xyz": [3.124807, 1.242101, -2.305803], "properties": {}}, {"name": "H", "species": [{"element": "H", "occu": 1}], "xyz": [1.501488, 1.740129, -1.736754], "properties": {}}, {"name": "H", "species": [{"element": "H", "occu": 1}], "xyz": [4.079796, 3.177204, -0.919453], "properties": {}}, {"name": "H", "species": [{"element": "H", "occu": 1}], "xyz": [3.067439, 3.664918, -2.319095], "properties": {}}]}, "smiles": "FC(F)(OCCF)CC(F)(F)F", "inchi": "InChI=1S/C5H6F6O/c6-1-2-12-5(10,11)3-4(7,8)9/h1-3H2", "formula_alphabetical": "C5 F6 H6 O1", "chemsys": "C-F-H-O", "energy": -868.474770385, "esp": {"1": ["F", -0.236946], "2": ["F", -0.238811], "3": ["F", -0.213392], "4": ["F", -0.215586], "5": ["F", -0.232877], "6": ["F", -0.277826], "7": ["O", -0.358974], "8": ["C", -0.515871], "9": ["C", 0.681115], "10": ["C", 0.710043], "11": ["C", 0.005668], "12": ["C", 0.21771], "13": ["H", 0.191522], "14": ["H", 0.200518], "15": ["H", 0.071586], "16": ["H", 0.111307], "17": ["H", 0.057722], "18": ["H", 0.043092]}, "dipole_moment": {"X": 1.9879, "Y": 2.2129, "Z": -1.5415, "Tot": 3.3503}, "functional": "B3LYP", "basis": "6-31+G*", "phase": "gas", "tag": "lis", "state": "successful", "wall_time (s)": 9.242437787004746, "version": "0.0.1", "gauss_version": "ES64L-G16RevC.01", "last_updated": "2021-09-14 20:59:45.736000", "polarizability": 68.48, "fluorinated-solvent": "60025020", "run_ids": ["61410d2145a1c0f3e389d459", "61410d3ce93bcc6c7be80972"]}