{"_id": "614112c0fe389a0ba461d64c", "molecule": {"@module": "pymatgen.core.structure", "@class": "Molecule", "charge": 0, "spin_multiplicity": 1, "sites": [{"name": "F", "species": [{"element": "F", "occu": 1}], "xyz": [4.694511, -0.128927, 1.011702], "properties": {}}, {"name": "F", "species": [{"element": "F", "occu": 1}], "xyz": [4.826946, 0.855442, -0.959934], "properties": {}}, {"name": "F", "species": [{"element": "F", "occu": 1}], "xyz": [1.018872, 1.417281, 3.910747], "properties": {}}, {"name": "F", "species": [{"element": "F", "occu": 1}], "xyz": [1.160082, 3.449966, 3.065293], "properties": {}}, {"name": "F", "species": [{"element": "F", "occu": 1}], "xyz": [5.026025, 2.093263, 2.351845], "properties": {}}, {"name": "F", "species": [{"element": "F", "occu": 1}], "xyz": [-1.417749, 3.258518, 2.143416], "properties": {}}, {"name": "F", "species": [{"element": "F", "occu": 1}], "xyz": [-1.523567, 1.160772, 2.826515], "properties": {}}, {"name": "F", "species": [{"element": "F", "occu": 1}], "xyz": [7.203609, 3.231882, 1.402475], "properties": {}}, {"name": "F", "species": [{"element": "F", "occu": 1}], "xyz": [7.270939, 1.145528, 0.776425], "properties": {}}, {"name": "F", "species": [{"element": "F", "occu": 1}], "xyz": [6.755182, 2.707758, -0.664717], "properties": {}}, {"name": "F", "species": [{"element": "F", "occu": 1}], "xyz": [-0.951504, 4.071871, 4.744448], "properties": {}}, {"name": "F", "species": [{"element": "F", "occu": 1}], "xyz": [-2.769122, 2.838983, 4.50422], "properties": {}}, {"name": "O", "species": [{"element": "O", "occu": 1}], "xyz": [2.368157, 1.56574, 1.498814], "properties": {}}, {"name": "C", "species": [{"element": "C", "occu": 1}], "xyz": [4.379803, 1.010347, 0.33361], "properties": {}}, {"name": "C", "species": [{"element": "C", "occu": 1}], "xyz": [0.579691, 2.229566, 2.896588], "properties": {}}, {"name": "C", "species": [{"element": "C", "occu": 1}], "xyz": [2.864249, 1.165642, 0.241743], "properties": {}}, {"name": "C", "species": [{"element": "C", "occu": 1}], "xyz": [0.961782, 1.64786, 1.539912], "properties": {}}, {"name": "C", "species": [{"element": "C", "occu": 1}], "xyz": [5.119492, 2.206728, 0.983619], "properties": {}}, {"name": "C", "species": [{"element": "C", "occu": 1}], "xyz": [-0.954005, 2.381929, 3.074107], "properties": {}}, {"name": "C", "species": [{"element": "C", "occu": 1}], "xyz": [6.614272, 2.306686, 0.61797], "properties": {}}, {"name": "C", "species": [{"element": "C", "occu": 1}], "xyz": [-1.407264, 2.817427, 4.485165], "properties": {}}, {"name": "H", "species": [{"element": "H", "occu": 1}], "xyz": [2.642317, 1.916206, -0.532636], "properties": {}}, {"name": "H", "species": [{"element": "H", "occu": 1}], "xyz": [2.455734, 0.195094, -0.076066], "properties": {}}, {"name": "H", "species": [{"element": "H", "occu": 1}], "xyz": [0.569564, 2.316515, 0.759615], "properties": {}}, {"name": "H", "species": [{"element": "H", "occu": 1}], "xyz": [0.497738, 0.658429, 1.431592], "properties": {}}, {"name": "H", "species": [{"element": "H", "occu": 1}], "xyz": [4.647252, 3.144428, 0.673429], "properties": {}}, {"name": "H", "species": [{"element": "H", "occu": 1}], "xyz": [-1.046323, 2.129957, 5.254001], "properties": {}}]}, "smiles": "FC(F)(COCC(F)(F)C(F)(F)C(F)F)[C@@H](F)C(F)(F)F", "inchi": "InChI=1S/C8H6F12O/c9-3(8(18,19)20)5(12,13)1-21-2-6(14,15)7(16,17)4(10)11/h3-4H,1-2H2/t3-/m1/s1", "formula_alphabetical": "C8 F12 H6 O1", "chemsys": "C-F-H-O", "energy": -1581.83503254, "esp": {"1": ["F", -0.17307], "2": ["F", -0.213036], "3": ["F", -0.17313], "4": ["F", -0.152695], "5": ["F", -0.152752], "6": ["F", -0.131519], "7": ["F", -0.174976], "8": ["F", -0.183892], "9": ["F", -0.16007], "10": ["F", -0.204605], "11": ["F", -0.19415], "12": ["F", -0.195016], "13": ["O", -0.17913], "14": ["C", 0.437511], "15": ["C", 0.241735], "16": ["C", -0.189049], "17": ["C", -0.00019], "18": ["C", -0.148205], "19": ["C", 0.194628], "20": ["C", 0.592609], "21": ["C", 0.367908], "22": ["H", 0.123281], "23": ["H", 0.143033], "24": ["H", 0.101446], "25": ["H", 0.118108], "26": ["H", 0.193339], "27": ["H", 0.111888]}, "dipole_moment": {"X": -2.533, "Y": -0.5504, "Z": -1.9366, "Tot": 3.2356}, "functional": "B3LYP", "basis": "6-31+G*", "phase": "gas", "tag": "lis", "state": "successful", "wall_time (s)": 24.576289605000056, "version": "0.0.1", "gauss_version": "ES64L-G16RevC.01", "last_updated": "2021-09-14 21:23:12.240000", "polarizability": 108.06, "fluorinated-solvent": "58957474", "run_ids": ["614111e091e5c1b3629b36e8", "61411259c7fdd32899c5d35b"]}