{"_id": "61410bfc7ca6da6350106edf", "molecule": {"@module": "pymatgen.core.structure", "@class": "Molecule", "charge": 0, "spin_multiplicity": 1, "sites": [{"name": "F", "species": [{"element": "F", "occu": 1}], "xyz": [0.806473, -2.718483, 3.703398], "properties": {}}, {"name": "F", "species": [{"element": "F", "occu": 1}], "xyz": [-0.991716, -1.524898, 3.377022], "properties": {}}, {"name": "F", "species": [{"element": "F", "occu": 1}], "xyz": [0.711444, -0.667204, 4.436416], "properties": {}}, {"name": "F", "species": [{"element": "F", "occu": 1}], "xyz": [1.108215, -1.174801, -0.238773], "properties": {}}, {"name": "F", "species": [{"element": "F", "occu": 1}], "xyz": [1.258673, -3.003413, 0.938129], "properties": {}}, {"name": "F", "species": [{"element": "F", "occu": 1}], "xyz": [-0.6693, -2.006537, 0.712791], "properties": {}}, {"name": "O", "species": [{"element": "O", "occu": 1}], "xyz": [2.330121, -0.797996, 2.228135], "properties": {}}, {"name": "C", "species": [{"element": "C", "occu": 1}], "xyz": [2.847819, 0.543201, 2.461196], "properties": {}}, {"name": "C", "species": [{"element": "C", "occu": 1}], "xyz": [0.948603, -0.924172, 2.101921], "properties": {}}, {"name": "C", "species": [{"element": "C", "occu": 1}], "xyz": [4.209909, 0.334618, 3.120796], "properties": {}}, {"name": "C", "species": [{"element": "C", "occu": 1}], "xyz": [2.899471, 1.315105, 1.145854], "properties": {}}, {"name": "C", "species": [{"element": "C", "occu": 1}], "xyz": [0.358766, -1.485446, 3.413898], "properties": {}}, {"name": "C", "species": [{"element": "C", "occu": 1}], "xyz": [0.658453, -1.803957, 0.871217], "properties": {}}, {"name": "C", "species": [{"element": "C", "occu": 1}], "xyz": [4.89025, 1.640081, 3.550435], "properties": {}}, {"name": "H", "species": [{"element": "H", "occu": 1}], "xyz": [2.179699, 1.048199, 3.173836], "properties": {}}, {"name": "H", "species": [{"element": "H", "occu": 1}], "xyz": [0.438241, 0.030552, 1.920662], "properties": {}}, {"name": "H", "species": [{"element": "H", "occu": 1}], "xyz": [4.058388, -0.312647, 3.992894], "properties": {}}, {"name": "H", "species": [{"element": "H", "occu": 1}], "xyz": [4.851169, -0.219356, 2.422624], "properties": {}}, {"name": "H", "species": [{"element": "H", "occu": 1}], "xyz": [1.913364, 1.370009, 0.671781], "properties": {}}, {"name": "H", "species": [{"element": "H", "occu": 1}], "xyz": [3.2422, 2.341419, 1.315001], "properties": {}}, {"name": "H", "species": [{"element": "H", "occu": 1}], "xyz": [3.583866, 0.823081, 0.446031], "properties": {}}, {"name": "H", "species": [{"element": "H", "occu": 1}], "xyz": [4.241596, 2.228839, 4.212022], "properties": {}}, {"name": "H", "species": [{"element": "H", "occu": 1}], "xyz": [5.814471, 1.425982, 4.098153], "properties": {}}, {"name": "H", "species": [{"element": "H", "occu": 1}], "xyz": [5.154615, 2.267883, 2.692071], "properties": {}}]}, "smiles": "FC(F)(F)C(O[C@@H](CC)C)C(F)(F)F", "inchi": "InChI=1S/C7H10F6O/c1-3-4(2)14-5(6(8,9)10)7(11,12)13/h4-5H,3H2,1-2H3/t4-/m1/s1", "formula_alphabetical": "C7 F6 H10 O1", "chemsys": "C-F-H-O", "energy": -947.09518315, "esp": {"1": ["F", -0.157787], "2": ["F", -0.193128], "3": ["F", -0.184145], "4": ["F", -0.1981], "5": ["F", -0.17306], "6": ["F", -0.215985], "7": ["O", -0.478189], "8": ["C", 0.535358], "9": ["C", -0.105186], "10": ["C", 0.025269], "11": ["C", -0.458059], "12": ["C", 0.537262], "13": ["C", 0.623801], "14": ["C", -0.251158], "15": ["H", -0.02792], "16": ["H", 0.13936], "17": ["H", 0.02217], "18": ["H", 0.018357], "19": ["H", 0.114815], "20": ["H", 0.097799], "21": ["H", 0.138559], "22": ["H", 0.050437], "23": ["H", 0.078557], "24": ["H", 0.060974]}, "dipole_moment": {"X": 1.4233, "Y": 3.3205, "Z": 0.148, "Tot": 3.6157}, "functional": "B3LYP", "basis": "6-31+G*", "phase": "gas", "tag": "lis", "state": "successful", "wall_time (s)": 14.762462215032429, "version": "0.0.1", "gauss_version": "ES64L-G16RevC.01", "last_updated": "2021-09-14 20:54:20.399000", "polarizability": 91.98, "fluorinated-solvent": "59709618", "run_ids": ["61410ab515610ce6ff68b40c", "61410b79c756c5132a28236c"]}