{"_id": "61412068e10bd15cad8e62cd", "molecule": {"@module": "pymatgen.core.structure", "@class": "Molecule", "charge": 0, "spin_multiplicity": 1, "sites": [{"name": "F", "species": [{"element": "F", "occu": 1}], "xyz": [3.694395, -2.473189, -1.325364], "properties": {}}, {"name": "F", "species": [{"element": "F", "occu": 1}], "xyz": [1.578156, -2.438684, -1.867517], "properties": {}}, {"name": "F", "species": [{"element": "F", "occu": 1}], "xyz": [3.202901, -1.072809, -3.661459], "properties": {}}, {"name": "O", "species": [{"element": "O", "occu": 1}], "xyz": [2.312364, -1.05881, -0.232251], "properties": {}}, {"name": "C", "species": [{"element": "C", "occu": 1}], "xyz": [1.948404, -1.94822, 0.881401], "properties": {}}, {"name": "C", "species": [{"element": "C", "occu": 1}], "xyz": [2.759741, -1.495117, 2.092442], "properties": {}}, {"name": "C", "species": [{"element": "C", "occu": 1}], "xyz": [0.4417, -1.857187, 1.086116], "properties": {}}, {"name": "C", "species": [{"element": "C", "occu": 1}], "xyz": [2.604694, -1.628071, -1.41863], "properties": {}}, {"name": "C", "species": [{"element": "C", "occu": 1}], "xyz": [4.272788, -1.654492, 1.91553], "properties": {}}, {"name": "C", "species": [{"element": "C", "occu": 1}], "xyz": [2.883103, -0.521732, -2.429042], "properties": {}}, {"name": "H", "species": [{"element": "H", "occu": 1}], "xyz": [2.235873, -2.967533, 0.601979], "properties": {}}, {"name": "H", "species": [{"element": "H", "occu": 1}], "xyz": [2.508374, -0.446413, 2.302121], "properties": {}}, {"name": "H", "species": [{"element": "H", "occu": 1}], "xyz": [2.417847, -2.080665, 2.9567], "properties": {}}, {"name": "H", "species": [{"element": "H", "occu": 1}], "xyz": [-0.090439, -2.165913, 0.181961], "properties": {}}, {"name": "H", "species": [{"element": "H", "occu": 1}], "xyz": [0.134465, -2.509132, 1.9123], "properties": {}}, {"name": "H", "species": [{"element": "H", "occu": 1}], "xyz": [0.15234, -0.828574, 1.33017], "properties": {}}, {"name": "H", "species": [{"element": "H", "occu": 1}], "xyz": [4.633137, -1.059507, 1.070291], "properties": {}}, {"name": "H", "species": [{"element": "H", "occu": 1}], "xyz": [4.806513, -1.327745, 2.815175], "properties": {}}, {"name": "H", "species": [{"element": "H", "occu": 1}], "xyz": [4.540731, -2.700648, 1.723339], "properties": {}}, {"name": "H", "species": [{"element": "H", "occu": 1}], "xyz": [1.987183, 0.095284, -2.537624], "properties": {}}, {"name": "H", "species": [{"element": "H", "occu": 1}], "xyz": [3.727608, 0.077347, -2.078018], "properties": {}}]}, "smiles": "FC(F)(O[C@@H](CC)C)CF", "inchi": "InChI=1S/C6H11F3O/c1-3-5(2)10-6(8,9)4-7/h5H,3-4H2,1-2H3/t5-/m1/s1", "formula_alphabetical": "C6 F3 H11 O1", "chemsys": "C-F-H-O", "energy": -610.049399663, "esp": {"1": ["F", -0.261639], "2": ["F", -0.261932], "3": ["F", -0.250341], "4": ["O", -0.53173], "5": ["C", 0.465588], "6": ["C", -0.021835], "7": ["C", -0.56851], "8": ["C", 0.66117], "9": ["C", -0.239898], "10": ["C", 0.082887], "11": ["H", 0.028963], "12": ["H", 0.044358], "13": ["H", 0.020885], "14": ["H", 0.17062], "15": ["H", 0.128555], "16": ["H", 0.148446], "17": ["H", 0.072148], "18": ["H", 0.068817], "19": ["H", 0.060708], "20": ["H", 0.091172], "21": ["H", 0.091569]}, "dipole_moment": {"X": -0.7958, "Y": 1.3953, "Z": 3.0358, "Tot": 3.4346}, "functional": "B3LYP", "basis": "6-31+G*", "phase": "gas", "tag": "lis", "state": "successful", "wall_time (s)": 9.713980656000786, "version": "0.0.1", "gauss_version": "ES64L-G16RevC.01", "last_updated": "2021-09-14 22:21:28.283000", "polarizability": 77.78, "fluorinated-solvent": "60123630", "run_ids": ["614120427325250f3e18241b", "61412063d7b60b1c9b7755ec"]}