{"_id": "61410c9437c3864bc2091e2f", "molecule": {"@module": "pymatgen.core.structure", "@class": "Molecule", "charge": 0, "spin_multiplicity": 1, "sites": [{"name": "F", "species": [{"element": "F", "occu": 1}], "xyz": [0.964948, -0.094043, 0.224445], "properties": {}}, {"name": "F", "species": [{"element": "F", "occu": 1}], "xyz": [2.750037, -1.1271, 0.962619], "properties": {}}, {"name": "F", "species": [{"element": "F", "occu": 1}], "xyz": [2.783932, 3.62031, 0.939889], "properties": {}}, {"name": "O", "species": [{"element": "O", "occu": 1}], "xyz": [2.839174, -0.076246, -1.035252], "properties": {}}, {"name": "C", "species": [{"element": "C", "occu": 1}], "xyz": [2.802877, 1.245536, 0.933828], "properties": {}}, {"name": "C", "species": [{"element": "C", "occu": 1}], "xyz": [2.356072, -0.018797, 0.228793], "properties": {}}, {"name": "C", "species": [{"element": "C", "occu": 1}], "xyz": [2.363331, 2.503587, 0.19584], "properties": {}}, {"name": "C", "species": [{"element": "C", "occu": 1}], "xyz": [2.497637, -1.250098, -1.82217], "properties": {}}, {"name": "C", "species": [{"element": "C", "occu": 1}], "xyz": [3.125103, -1.063578, -3.190427], "properties": {}}, {"name": "H", "species": [{"element": "H", "occu": 1}], "xyz": [2.377803, 1.234409, 1.941545], "properties": {}}, {"name": "H", "species": [{"element": "H", "occu": 1}], "xyz": [3.893395, 1.220404, 1.01636], "properties": {}}, {"name": "H", "species": [{"element": "H", "occu": 1}], "xyz": [2.822484, 2.574307, -0.793923], "properties": {}}, {"name": "H", "species": [{"element": "H", "occu": 1}], "xyz": [1.274367, 2.560629, 0.104573], "properties": {}}, {"name": "H", "species": [{"element": "H", "occu": 1}], "xyz": [2.889204, -2.137248, -1.314066], "properties": {}}, {"name": "H", "species": [{"element": "H", "occu": 1}], "xyz": [1.407197, -1.326702, -1.883115], "properties": {}}, {"name": "H", "species": [{"element": "H", "occu": 1}], "xyz": [4.213017, -0.968607, -3.108819], "properties": {}}, {"name": "H", "species": [{"element": "H", "occu": 1}], "xyz": [2.898086, -1.929803, -3.822369], "properties": {}}, {"name": "H", "species": [{"element": "H", "occu": 1}], "xyz": [2.732778, -0.165318, -3.678902], "properties": {}}]}, "smiles": "FC(F)(OCC)CCF", "inchi": "InChI=1S/C5H9F3O/c1-2-9-5(7,8)3-4-6/h2-4H2,1H3", "formula_alphabetical": "C5 F3 H9 O1", "chemsys": "C-F-H-O", "energy": -570.739003347, "esp": {"1": ["F", -0.241452], "2": ["F", -0.241929], "3": ["F", -0.31675], "4": ["O", -0.396343], "5": ["C", -0.24824], "6": ["C", 0.498536], "7": ["C", 0.312538], "8": ["C", 0.308976], "9": ["C", -0.335721], "10": ["H", 0.127846], "11": ["H", 0.125946], "12": ["H", 0.02403], "13": ["H", 0.033436], "14": ["H", 0.032732], "15": ["H", 0.022816], "16": ["H", 0.107624], "17": ["H", 0.083758], "18": ["H", 0.102198]}, "dipole_moment": {"X": 0.1991, "Y": -1.4731, "Z": -2.3074, "Tot": 2.7448}, "functional": "B3LYP", "basis": "6-31+G*", "phase": "gas", "tag": "lis", "state": "successful", "wall_time (s)": 7.304429113049991, "version": "0.0.1", "gauss_version": "ES64L-G16RevC.01", "last_updated": "2021-09-14 20:56:52.107000", "polarizability": 65.91, "fluorinated-solvent": "58914114", "run_ids": ["61410c78696acb654e677faa", "61410c8622547ba72b8aaf55"]}