{"_id": "613a4b93d8240e814ec80b29", "molecule": {"@module": "pymatgen.core.structure", "@class": "Molecule", "charge": 0, "spin_multiplicity": 1, "sites": [{"name": "F", "species": [{"element": "F", "occu": 1}], "xyz": [5.084007, -2.281361, -0.52152], "properties": {}}, {"name": "F", "species": [{"element": "F", "occu": 1}], "xyz": [4.769418, -0.515849, 0.72287], "properties": {}}, {"name": "F", "species": [{"element": "F", "occu": 1}], "xyz": [4.699347, -0.343616, -1.453626], "properties": {}}, {"name": "F", "species": [{"element": "F", "occu": 1}], "xyz": [0.618369, -2.752523, 2.83997], "properties": {}}, {"name": "F", "species": [{"element": "F", "occu": 1}], "xyz": [-0.864659, -3.291426, 1.327119], "properties": {}}, {"name": "F", "species": [{"element": "F", "occu": 1}], "xyz": [0.929042, -4.511029, 1.598555], "properties": {}}, {"name": "O", "species": [{"element": "O", "occu": 1}], "xyz": [1.035135, -2.475074, 0.64616], "properties": {}}, {"name": "C", "species": [{"element": "C", "occu": 1}], "xyz": [2.870941, -1.413346, -0.398042], "properties": {}}, {"name": "C", "species": [{"element": "C", "occu": 1}], "xyz": [2.468483, -2.307404, 0.768043], "properties": {}}, {"name": "C", "species": [{"element": "C", "occu": 1}], "xyz": [4.358482, -1.137891, -0.41288], "properties": {}}, {"name": "C", "species": [{"element": "C", "occu": 1}], "xyz": [0.446781, -3.24015, 1.582693], "properties": {}}, {"name": "H", "species": [{"element": "H", "occu": 1}], "xyz": [2.352036, -0.452325, -0.336531], "properties": {}}, {"name": "H", "species": [{"element": "H", "occu": 1}], "xyz": [2.607467, -1.886766, -1.348333], "properties": {}}, {"name": "H", "species": [{"element": "H", "occu": 1}], "xyz": [2.954226, -3.285774, 0.709729], "properties": {}}, {"name": "H", "species": [{"element": "H", "occu": 1}], "xyz": [2.698323, -1.839915, 1.729903], "properties": {}}]}, "smiles": "FC(F)(F)CCOC(F)(F)F", "inchi": "InChI=1S/C4H4F6O/c5-3(6,7)1-2-11-4(8,9)10/h1-2H2", "formula_alphabetical": "C4 F6 H4 O1", "chemsys": "C-F-H-O", "energy": -829.172943425, "esp": {"1": ["F", -0.213358], "2": ["F", -0.212575], "3": ["F", -0.209677], "4": ["F", -0.213618], "5": ["F", -0.182482], "6": ["F", -0.214347], "7": ["O", -0.398061], "8": ["C", -0.330656], "9": ["C", 0.288043], "10": ["C", 0.609307], "11": ["C", 0.704556], "12": ["H", 0.147625], "13": ["H", 0.148531], "14": ["H", 0.038919], "15": ["H", 0.037794]}, "dipole_moment": {"X": 0.082, "Y": 0.4397, "Z": -0.606, "Tot": 0.7532}, "functional": "B3LYP", "basis": "6-31+G*", "phase": "gas", "tag": "lis", "state": "successful", "wall_time (s)": 14.34112344298046, "version": "0.0.1", "gauss_version": "ES64L-G16RevC.01", "last_updated": "2021-09-09 17:59:46.216000", "polarizability": 56.88, "fluorinated-solvent": "20715328", "run_ids": ["613a491a6405dc7c47a8c9a7", "613a4b2a43147c3c9369ecc0"]}