{"_id": "61412e3e39b2e1c0889b1b30", "molecule": {"@module": "pymatgen.core.structure", "@class": "Molecule", "charge": 0, "spin_multiplicity": 1, "sites": [{"name": "F", "species": [{"element": "F", "occu": 1}], "xyz": [0.730464, -0.081023, 0.211157], "properties": {}}, {"name": "F", "species": [{"element": "F", "occu": 1}], "xyz": [2.201951, -0.217074, -1.398149], "properties": {}}, {"name": "F", "species": [{"element": "F", "occu": 1}], "xyz": [4.142213, -1.043383, 0.437224], "properties": {}}, {"name": "F", "species": [{"element": "F", "occu": 1}], "xyz": [2.683401, -0.890105, 2.057674], "properties": {}}, {"name": "F", "species": [{"element": "F", "occu": 1}], "xyz": [3.208537, 2.31551, -1.517445], "properties": {}}, {"name": "F", "species": [{"element": "F", "occu": 1}], "xyz": [1.122096, 2.436269, -0.880664], "properties": {}}, {"name": "O", "species": [{"element": "O", "occu": 1}], "xyz": [2.581431, 1.196004, 0.339811], "properties": {}}, {"name": "O", "species": [{"element": "O", "occu": 1}], "xyz": [2.285667, -2.321496, 0.360165], "properties": {}}, {"name": "C", "species": [{"element": "C", "occu": 1}], "xyz": [2.057554, -0.007727, -0.068405], "properties": {}}, {"name": "C", "species": [{"element": "C", "occu": 1}], "xyz": [2.799954, -1.133644, 0.710701], "properties": {}}, {"name": "C", "species": [{"element": "C", "occu": 1}], "xyz": [2.404422, 2.362781, -0.41179], "properties": {}}, {"name": "C", "species": [{"element": "C", "occu": 1}], "xyz": [2.742011, 3.555022, 0.444757], "properties": {}}, {"name": "C", "species": [{"element": "C", "occu": 1}], "xyz": [2.87427, -3.484631, 0.985684], "properties": {}}, {"name": "H", "species": [{"element": "H", "occu": 1}], "xyz": [2.059632, 3.594797, 1.29658], "properties": {}}, {"name": "H", "species": [{"element": "H", "occu": 1}], "xyz": [3.77067, 3.465283, 0.80093], "properties": {}}, {"name": "H", "species": [{"element": "H", "occu": 1}], "xyz": [2.637264, 4.459234, -0.159154], "properties": {}}, {"name": "H", "species": [{"element": "H", "occu": 1}], "xyz": [3.932611, -3.561534, 0.721886], "properties": {}}, {"name": "H", "species": [{"element": "H", "occu": 1}], "xyz": [2.749778, -3.434917, 2.070913], "properties": {}}, {"name": "H", "species": [{"element": "H", "occu": 1}], "xyz": [2.321174, -4.331367, 0.580354], "properties": {}}]}, "smiles": "FC(F)(OC(F)(F)C)C(F)(F)OC", "inchi": "InChI=1S/C5H6F6O2/c1-3(6,7)13-5(10,11)4(8,9)12-2/h1-2H3", "formula_alphabetical": "C5 F6 H6 O2", "chemsys": "C-F-H-O", "energy": -943.695154262, "esp": {"1": ["F", -0.1263], "2": ["F", -0.115559], "3": ["F", -0.172107], "4": ["F", -0.174999], "5": ["F", -0.232378], "6": ["F", -0.217817], "7": ["O", -0.317296], "8": ["O", -0.267115], "9": ["C", 0.240449], "10": ["C", 0.438291], "11": ["C", 0.728707], "12": ["C", -0.584456], "13": ["C", -0.068718], "14": ["H", 0.191904], "15": ["H", 0.187228], "16": ["H", 0.179318], "17": ["H", 0.0984], "18": ["H", 0.099775], "19": ["H", 0.112675]}, "dipole_moment": {"X": 1.0503, "Y": -0.5398, "Z": 1.9858, "Tot": 2.3104}, "functional": "B3LYP", "basis": "6-31+G*", "phase": "gas", "tag": "lis", "state": "successful", "wall_time (s)": 10.766645708004944, "version": "0.0.1", "gauss_version": "ES64L-G16RevC.01", "last_updated": "2021-09-14 23:20:30.296000", "polarizability": 73.27, "fluorinated-solvent": "59172593", "run_ids": ["61412e1d7eb1dd9d85365018", "61412e34cb4a5e3437e0f9ab"]}