{"_id": "613a4ece415a7130ab6ad3a4", "molecule": {"@module": "pymatgen.core.structure", "@class": "Molecule", "charge": 0, "spin_multiplicity": 1, "sites": [{"name": "F", "species": [{"element": "F", "occu": 1}], "xyz": [0.939797, 0.927621, -0.196717], "properties": {}}, {"name": "F", "species": [{"element": "F", "occu": 1}], "xyz": [2.489707, -0.352241, -1.123556], "properties": {}}, {"name": "F", "species": [{"element": "F", "occu": 1}], "xyz": [4.391616, -0.825123, 1.562612], "properties": {}}, {"name": "O", "species": [{"element": "O", "occu": 1}], "xyz": [2.963162, 2.347705, 1.227696], "properties": {}}, {"name": "C", "species": [{"element": "C", "occu": 1}], "xyz": [3.215761, 1.569631, 0.068772], "properties": {}}, {"name": "C", "species": [{"element": "C", "occu": 1}], "xyz": [4.672534, 1.086816, 0.125895], "properties": {}}, {"name": "C", "species": [{"element": "C", "occu": 1}], "xyz": [2.211171, 0.417352, -0.014475], "properties": {}}, {"name": "C", "species": [{"element": "C", "occu": 1}], "xyz": [5.067357, 0.410371, 1.427981], "properties": {}}, {"name": "C", "species": [{"element": "C", "occu": 1}], "xyz": [2.066975, 3.457244, 1.070813], "properties": {}}, {"name": "C", "species": [{"element": "C", "occu": 1}], "xyz": [2.020175, 4.199774, 2.394956], "properties": {}}, {"name": "H", "species": [{"element": "H", "occu": 1}], "xyz": [3.076155, 2.17019, -0.843648], "properties": {}}, {"name": "H", "species": [{"element": "H", "occu": 1}], "xyz": [4.873176, 0.416151, -0.716636], "properties": {}}, {"name": "H", "species": [{"element": "H", "occu": 1}], "xyz": [5.314711, 1.969417, 0.009281], "properties": {}}, {"name": "H", "species": [{"element": "H", "occu": 1}], "xyz": [2.194238, -0.227777, 0.864591], "properties": {}}, {"name": "H", "species": [{"element": "H", "occu": 1}], "xyz": [6.138877, 0.185809, 1.443171], "properties": {}}, {"name": "H", "species": [{"element": "H", "occu": 1}], "xyz": [4.798894, 1.018085, 2.29614], "properties": {}}, {"name": "H", "species": [{"element": "H", "occu": 1}], "xyz": [2.441379, 4.111382, 0.266913], "properties": {}}, {"name": "H", "species": [{"element": "H", "occu": 1}], "xyz": [1.070627, 3.100979, 0.783692], "properties": {}}, {"name": "H", "species": [{"element": "H", "occu": 1}], "xyz": [3.01781, 4.554536, 2.676175], "properties": {}}, {"name": "H", "species": [{"element": "H", "occu": 1}], "xyz": [1.350116, 5.064136, 2.318663], "properties": {}}, {"name": "H", "species": [{"element": "H", "occu": 1}], "xyz": [1.649921, 3.543051, 3.189578], "properties": {}}]}, "smiles": "FC(F)[C@@H](OCC)CCF", "inchi": "InChI=1S/C6H11F3O/c1-2-10-5(3-4-7)6(8)9/h5-6H,2-4H2,1H3/t5-/m0/s1", "formula_alphabetical": "C6 F3 H11 O1", "chemsys": "C-F-H-O", "energy": -610.031653734, "esp": {"1": ["F", -0.240828], "2": ["F", -0.241084], "3": ["F", -0.310587], "4": ["O", -0.427833], "5": ["C", 0.223824], "6": ["C", -0.243166], "7": ["C", 0.302179], "8": ["C", 0.275405], "9": ["C", 0.308007], "10": ["C", -0.274243], "11": ["H", 0.044912], "12": ["H", 0.097873], "13": ["H", 0.084702], "14": ["H", 0.124951], "15": ["H", 0.036217], "16": ["H", 0.016553], "17": ["H", -0.004045], "18": ["H", -0.004193], "19": ["H", 0.07895], "20": ["H", 0.065727], "21": ["H", 0.086677]}, "dipole_moment": {"X": 1.7487, "Y": 2.9774, "Z": 0.4015, "Tot": 3.4762}, "functional": "B3LYP", "basis": "6-31+G*", "phase": "gas", "tag": "lis", "state": "successful", "wall_time (s)": 8.959331333055161, "version": "0.0.1", "gauss_version": "ES64L-G16RevC.01", "last_updated": "2021-09-09 18:13:34.298000", "polarizability": 77.87, "fluorinated-solvent": "54416676", "run_ids": ["613a4a49a370d892cde1357f", "613a4ec73014623790501e04"]}