{"_id": "613a4e76eac2555a5c239f46", "molecule": {"@module": "pymatgen.core.structure", "@class": "Molecule", "charge": 0, "spin_multiplicity": 1, "sites": [{"name": "F", "species": [{"element": "F", "occu": 1}], "xyz": [1.459281, -1.193664, 0.430957], "properties": {}}, {"name": "F", "species": [{"element": "F", "occu": 1}], "xyz": [3.588939, -0.90071, 0.086154], "properties": {}}, {"name": "F", "species": [{"element": "F", "occu": 1}], "xyz": [1.133982, 1.468254, 1.086236], "properties": {}}, {"name": "F", "species": [{"element": "F", "occu": 1}], "xyz": [0.264609, 0.691769, -3.246852], "properties": {}}, {"name": "F", "species": [{"element": "F", "occu": 1}], "xyz": [0.29299, -1.428847, -3.769149], "properties": {}}, {"name": "F", "species": [{"element": "F", "occu": 1}], "xyz": [-0.362755, -0.797656, -1.787227], "properties": {}}, {"name": "F", "species": [{"element": "F", "occu": 1}], "xyz": [4.258753, -0.566094, -2.722584], "properties": {}}, {"name": "F", "species": [{"element": "F", "occu": 1}], "xyz": [2.944398, -1.245995, -4.324898], "properties": {}}, {"name": "F", "species": [{"element": "F", "occu": 1}], "xyz": [2.981362, 0.862343, -3.756409], "properties": {}}, {"name": "F", "species": [{"element": "F", "occu": 1}], "xyz": [2.691943, 1.675527, 3.258031], "properties": {}}, {"name": "F", "species": [{"element": "F", "occu": 1}], "xyz": [2.057743, -0.396386, 3.023903], "properties": {}}, {"name": "F", "species": [{"element": "F", "occu": 1}], "xyz": [4.103868, 0.183659, 2.52296], "properties": {}}, {"name": "O", "species": [{"element": "O", "occu": 1}], "xyz": [2.113742, 0.244661, -1.175479], "properties": {}}, {"name": "C", "species": [{"element": "C", "occu": 1}], "xyz": [1.951348, -0.684464, -2.239478], "properties": {}}, {"name": "C", "species": [{"element": "C", "occu": 1}], "xyz": [2.38144, -0.261196, 0.069994], "properties": {}}, {"name": "C", "species": [{"element": "C", "occu": 1}], "xyz": [2.399486, 0.927991, 1.047826], "properties": {}}, {"name": "C", "species": [{"element": "C", "occu": 1}], "xyz": [0.511692, -0.541851, -2.777167], "properties": {}}, {"name": "C", "species": [{"element": "C", "occu": 1}], "xyz": [3.046756, -0.394019, -3.286102], "properties": {}}, {"name": "C", "species": [{"element": "C", "occu": 1}], "xyz": [2.814032, 0.575378, 2.489278], "properties": {}}, {"name": "H", "species": [{"element": "H", "occu": 1}], "xyz": [2.077792, -1.718301, -1.908495], "properties": {}}, {"name": "H", "species": [{"element": "H", "occu": 1}], "xyz": [3.102542, 1.67502, 0.668068], "properties": {}}]}, "smiles": "FC(F)(OC(C(F)(F)F)C(F)(F)F)[C@@H](F)C(F)(F)F", "inchi": "InChI=1S/C6H2F12O/c7-1(3(8,9)10)6(17,18)19-2(4(11,12)13)5(14,15)16/h1-2H/t1-/m0/s1", "formula_alphabetical": "C6 F12 H2 O1", "chemsys": "C-F-H-O", "energy": -1503.24239389, "esp": {"1": ["F", -0.159978], "2": ["F", -0.182555], "3": ["F", -0.146208], "4": ["F", -0.153095], "5": ["F", -0.182819], "6": ["F", -0.159271], "7": ["F", -0.177947], "8": ["F", -0.180342], "9": ["F", -0.165101], "10": ["F", -0.16366], "11": ["F", -0.147876], "12": ["F", -0.176272], "13": ["O", -0.246746], "14": ["C", -0.216464], "15": ["C", 0.480929], "16": ["C", -0.082896], "17": ["C", 0.55785], "18": ["C", 0.587795], "19": ["C", 0.514151], "20": ["H", 0.212257], "21": ["H", 0.188249]}, "dipole_moment": {"X": 1.0167, "Y": -0.2121, "Z": -0.3408, "Tot": 1.0931}, "functional": "B3LYP", "basis": "6-31+G*", "phase": "gas", "tag": "lis", "state": "successful", "wall_time (s)": 20.098880192032084, "version": "0.0.1", "gauss_version": "ES64L-G16RevC.01", "last_updated": "2021-09-09 18:12:06.465000", "polarizability": 84.81, "fluorinated-solvent": "12195542", "run_ids": ["613a4a3705ab8df30ec56efb", "613a4e6e9b178e7ed4e83340"]}