{"_id": "613a4bcdf395b8546f5089b1", "molecule": {"@module": "pymatgen.core.structure", "@class": "Molecule", "charge": 0, "spin_multiplicity": 1, "sites": [{"name": "F", "species": [{"element": "F", "occu": 1}], "xyz": [1.630337, -2.019911, 3.621463], "properties": {}}, {"name": "F", "species": [{"element": "F", "occu": 1}], "xyz": [0.378477, -1.538794, 1.897492], "properties": {}}, {"name": "F", "species": [{"element": "F", "occu": 1}], "xyz": [5.00619, -0.125316, -0.485276], "properties": {}}, {"name": "F", "species": [{"element": "F", "occu": 1}], "xyz": [3.60627, 0.721541, -1.9574], "properties": {}}, {"name": "F", "species": [{"element": "F", "occu": 1}], "xyz": [1.606352, -3.345226, 0.324652], "properties": {}}, {"name": "F", "species": [{"element": "F", "occu": 1}], "xyz": [5.607449, 2.627921, 0.246385], "properties": {}}, {"name": "F", "species": [{"element": "F", "occu": 1}], "xyz": [3.271524, -5.233668, 1.494201], "properties": {}}, {"name": "F", "species": [{"element": "F", "occu": 1}], "xyz": [4.207619, -3.293977, 1.178432], "properties": {}}, {"name": "F", "species": [{"element": "F", "occu": 1}], "xyz": [3.613153, -3.902021, 3.190893], "properties": {}}, {"name": "F", "species": [{"element": "F", "occu": 1}], "xyz": [6.968145, 3.215977, -2.083703], "properties": {}}, {"name": "F", "species": [{"element": "F", "occu": 1}], "xyz": [7.265939, 1.176448, -1.381351], "properties": {}}, {"name": "F", "species": [{"element": "F", "occu": 1}], "xyz": [5.985281, 1.558579, -3.110707], "properties": {}}, {"name": "O", "species": [{"element": "O", "occu": 1}], "xyz": [2.585577, -1.086355, 1.802609], "properties": {}}, {"name": "O", "species": [{"element": "O", "occu": 1}], "xyz": [3.269817, 1.172173, 0.149092], "properties": {}}, {"name": "C", "species": [{"element": "C", "occu": 1}], "xyz": [1.648475, -1.94118, 2.242141], "properties": {}}, {"name": "C", "species": [{"element": "C", "occu": 1}], "xyz": [4.240931, 0.968495, -0.782046], "properties": {}}, {"name": "C", "species": [{"element": "C", "occu": 1}], "xyz": [1.859861, -3.357911, 1.678908], "properties": {}}, {"name": "C", "species": [{"element": "C", "occu": 1}], "xyz": [5.138637, 2.211041, -0.991093], "properties": {}}, {"name": "C", "species": [{"element": "C", "occu": 1}], "xyz": [2.470468, 0.291361, 2.224941], "properties": {}}, {"name": "C", "species": [{"element": "C", "occu": 1}], "xyz": [3.587743, 1.055788, 1.554694], "properties": {}}, {"name": "C", "species": [{"element": "C", "occu": 1}], "xyz": [3.270244, -3.9396, 1.885327], "properties": {}}, {"name": "C", "species": [{"element": "C", "occu": 1}], "xyz": [6.36202, 2.020151, -1.902528], "properties": {}}, {"name": "H", "species": [{"element": "H", "occu": 1}], "xyz": [1.14416, -4.02193, 2.172115], "properties": {}}, {"name": "H", "species": [{"element": "H", "occu": 1}], "xyz": [4.5161, 3.002697, -1.416401], "properties": {}}, {"name": "H", "species": [{"element": "H", "occu": 1}], "xyz": [1.494102, 0.685813, 1.928973], "properties": {}}, {"name": "H", "species": [{"element": "H", "occu": 1}], "xyz": [2.581874, 0.348905, 3.313377], "properties": {}}, {"name": "H", "species": [{"element": "H", "occu": 1}], "xyz": [3.654434, 2.063117, 1.976859], "properties": {}}, {"name": "H", "species": [{"element": "H", "occu": 1}], "xyz": [4.540041, 0.540248, 1.692864], "properties": {}}]}, "smiles": "FC(F)(OCCOC(F)(F)[C@@H](F)C(F)(F)F)[C@@H](F)C(F)(F)F", "inchi": "InChI=1S/C8H6F12O2/c9-3(5(11,12)13)7(17,18)21-1-2-22-8(19,20)4(10)6(14,15)16/h3-4H,1-2H2/t3-,4-/m0/s1", "formula_alphabetical": "C8 F12 H6 O2", "chemsys": "C-F-H-O", "energy": -1657.0845128, "esp": {"1": ["F", -0.225496], "2": ["F", -0.197462], "3": ["F", -0.15695], "4": ["F", -0.185999], "5": ["F", -0.139455], "6": ["F", -0.18654], "7": ["F", -0.188691], "8": ["F", -0.170746], "9": ["F", -0.197633], "10": ["F", -0.192857], "11": ["F", -0.166853], "12": ["F", -0.186568], "13": ["O", -0.214665], "14": ["O", -0.33977], "15": ["C", 0.502192], "16": ["C", 0.454608], "17": ["C", -0.168423], "18": ["C", -0.041429], "19": ["C", -0.032587], "20": ["C", 0.147278], "21": ["C", 0.594824], "22": ["C", 0.566373], "23": ["H", 0.204015], "24": ["H", 0.168463], "25": ["H", 0.118567], "26": ["H", 0.093752], "27": ["H", 0.071193], "28": ["H", 0.070858]}, "dipole_moment": {"X": -1.5763, "Y": 2.5742, "Z": 2.6303, "Tot": 4.0037}, "functional": "B3LYP", "basis": "6-31+G*", "phase": "gas", "tag": "lis", "state": "successful", "wall_time (s)": 28.124026164994575, "version": "0.0.1", "gauss_version": "ES64L-G16RevC.01", "last_updated": "2021-09-09 18:00:45.141000", "polarizability": 112.04, "fluorinated-solvent": "21902257", "run_ids": ["613a493446d6ebbf1fea5d86", "613a4b4feee2334217bed3ce"]}