{"_id": "614126eec9604ba803933353", "molecule": {"@module": "pymatgen.core.structure", "@class": "Molecule", "charge": 0, "spin_multiplicity": 1, "sites": [{"name": "F", "species": [{"element": "F", "occu": 1}], "xyz": [0.866776, 0.210462, 0.372478], "properties": {}}, {"name": "F", "species": [{"element": "F", "occu": 1}], "xyz": [2.628161, -0.259215, 1.564928], "properties": {}}, {"name": "F", "species": [{"element": "F", "occu": 1}], "xyz": [2.229864, 1.805653, -1.280572], "properties": {}}, {"name": "F", "species": [{"element": "F", "occu": 1}], "xyz": [2.672506, 2.31506, 0.820343], "properties": {}}, {"name": "F", "species": [{"element": "F", "occu": 1}], "xyz": [2.430419, -2.710403, -2.647367], "properties": {}}, {"name": "F", "species": [{"element": "F", "occu": 1}], "xyz": [4.052284, -3.121773, -1.213672], "properties": {}}, {"name": "F", "species": [{"element": "F", "occu": 1}], "xyz": [4.831904, 2.519097, -0.808365], "properties": {}}, {"name": "F", "species": [{"element": "F", "occu": 1}], "xyz": [5.050739, 0.835036, 0.607965], "properties": {}}, {"name": "F", "species": [{"element": "F", "occu": 1}], "xyz": [2.81755, -5.377606, -2.159959], "properties": {}}, {"name": "F", "species": [{"element": "F", "occu": 1}], "xyz": [2.491975, -5.068908, -0.022104], "properties": {}}, {"name": "F", "species": [{"element": "F", "occu": 1}], "xyz": [0.883114, -4.659828, -1.442497], "properties": {}}, {"name": "O", "species": [{"element": "O", "occu": 1}], "xyz": [2.571781, -0.904263, -0.592539], "properties": {}}, {"name": "C", "species": [{"element": "C", "occu": 1}], "xyz": [2.22154, 0.054908, 0.301124], "properties": {}}, {"name": "C", "species": [{"element": "C", "occu": 1}], "xyz": [2.03408, -2.211849, -0.360812], "properties": {}}, {"name": "C", "species": [{"element": "C", "occu": 1}], "xyz": [2.869335, 1.3935, -0.150504], "properties": {}}, {"name": "C", "species": [{"element": "C", "occu": 1}], "xyz": [2.699638, -3.127451, -1.379033], "properties": {}}, {"name": "C", "species": [{"element": "C", "occu": 1}], "xyz": [4.373034, 1.279516, -0.487372], "properties": {}}, {"name": "C", "species": [{"element": "C", "occu": 1}], "xyz": [2.21729, -4.598376, -1.255668], "properties": {}}, {"name": "H", "species": [{"element": "H", "occu": 1}], "xyz": [2.275176, -2.555868, 0.648536], "properties": {}}, {"name": "H", "species": [{"element": "H", "occu": 1}], "xyz": [0.952192, -2.213215, -0.517509], "properties": {}}, {"name": "H", "species": [{"element": "H", "occu": 1}], "xyz": [4.545355, 0.598852, -1.324202], "properties": {}}]}, "smiles": "FC(F)(OCC(F)(F)C(F)(F)F)C(F)(F)C(F)F", "inchi": "InChI=1S/C6H3F11O/c7-2(8)4(11,12)6(16,17)18-1-3(9,10)5(13,14)15/h2H,1H2", "formula_alphabetical": "C6 F11 H3 O1", "chemsys": "C-F-H-O", "energy": -1403.98472492, "esp": {"1": ["F", -0.157856], "2": ["F", -0.173618], "3": ["F", -0.160692], "4": ["F", -0.11888], "5": ["F", -0.145714], "6": ["F", -0.146412], "7": ["F", -0.179933], "8": ["F", -0.189799], "9": ["F", -0.141191], "10": ["F", -0.169753], "11": ["F", -0.172657], "12": ["O", -0.230549], "13": ["C", 0.415966], "14": ["C", -0.13488], "15": ["C", 0.209017], "16": ["C", 0.228739], "17": ["C", 0.314441], "18": ["C", 0.507399], "19": ["H", 0.162999], "20": ["H", 0.168106], "21": ["H", 0.115264]}, "dipole_moment": {"X": -0.9024, "Y": -2.106, "Z": -0.1656, "Tot": 2.2971}, "functional": "B3LYP", "basis": "6-31+G*", "phase": "gas", "tag": "lis", "state": "successful", "wall_time (s)": 17.494899146026, "version": "0.0.1", "gauss_version": "ES64L-G16RevC.01", "last_updated": "2021-09-14 22:49:18.503000", "polarizability": 84.06, "fluorinated-solvent": "141180703", "run_ids": ["614126cd115702a9ede20f3f", "614126e68fe3ba88edcab3aa"]}