{"_id": "6141268606aa452506a082aa", "molecule": {"@module": "pymatgen.core.structure", "@class": "Molecule", "charge": 0, "spin_multiplicity": 1, "sites": [{"name": "F", "species": [{"element": "F", "occu": 1}], "xyz": [3.664328, 0.517738, 0.569942], "properties": {}}, {"name": "F", "species": [{"element": "F", "occu": 1}], "xyz": [4.63831, -0.622856, -1.057932], "properties": {}}, {"name": "F", "species": [{"element": "F", "occu": 1}], "xyz": [3.98377, 1.403134, -3.510149], "properties": {}}, {"name": "O", "species": [{"element": "O", "occu": 1}], "xyz": [2.176661, 1.947589, -1.336324], "properties": {}}, {"name": "C", "species": [{"element": "C", "occu": 1}], "xyz": [2.727954, 0.674324, -1.600835], "properties": {}}, {"name": "C", "species": [{"element": "C", "occu": 1}], "xyz": [0.746083, 1.999352, -1.16087], "properties": {}}, {"name": "C", "species": [{"element": "C", "occu": 1}], "xyz": [3.99831, 0.562724, -0.761312], "properties": {}}, {"name": "C", "species": [{"element": "C", "occu": 1}], "xyz": [3.006568, 0.490009, -3.088001], "properties": {}}, {"name": "C", "species": [{"element": "C", "occu": 1}], "xyz": [0.35662, 1.538505, 0.244038], "properties": {}}, {"name": "C", "species": [{"element": "C", "occu": 1}], "xyz": [0.339314, 3.440662, -1.439201], "properties": {}}, {"name": "H", "species": [{"element": "H", "occu": 1}], "xyz": [2.061996, -0.140873, -1.278259], "properties": {}}, {"name": "H", "species": [{"element": "H", "occu": 1}], "xyz": [0.277361, 1.340826, -1.911441], "properties": {}}, {"name": "H", "species": [{"element": "H", "occu": 1}], "xyz": [4.698106, 1.386169, -0.915815], "properties": {}}, {"name": "H", "species": [{"element": "H", "occu": 1}], "xyz": [3.379089, -0.516943, -3.300718], "properties": {}}, {"name": "H", "species": [{"element": "H", "occu": 1}], "xyz": [2.096752, 0.688553, -3.664144], "properties": {}}, {"name": "H", "species": [{"element": "H", "occu": 1}], "xyz": [0.816519, 2.1941, 0.991544], "properties": {}}, {"name": "H", "species": [{"element": "H", "occu": 1}], "xyz": [-0.732527, 1.57043, 0.367322], "properties": {}}, {"name": "H", "species": [{"element": "H", "occu": 1}], "xyz": [0.690684, 0.51482, 0.444412], "properties": {}}, {"name": "H", "species": [{"element": "H", "occu": 1}], "xyz": [0.632728, 3.734779, -2.452016], "properties": {}}, {"name": "H", "species": [{"element": "H", "occu": 1}], "xyz": [-0.745117, 3.55977, -1.334976], "properties": {}}, {"name": "H", "species": [{"element": "H", "occu": 1}], "xyz": [0.833364, 4.113158, -0.728738], "properties": {}}]}, "smiles": "FC(F)[C@@H](OC(C)C)CF", "inchi": "InChI=1S/C6H11F3O/c1-4(2)10-5(3-7)6(8)9/h4-6H,3H2,1-2H3/t5-/m0/s1", "formula_alphabetical": "C6 F3 H11 O1", "chemsys": "C-F-H-O", "energy": -610.030418413, "esp": {"1": ["F", -0.259598], "2": ["F", -0.265351], "3": ["F", -0.252546], "4": ["O", -0.522745], "5": ["C", 0.132491], "6": ["C", 0.688867], "7": ["C", 0.446722], "8": ["C", 0.060352], "9": ["C", -0.538974], "10": ["C", -0.49978], "11": ["H", 0.048248], "12": ["H", -0.071378], "13": ["H", 0.087589], "14": ["H", 0.071766], "15": ["H", 0.09576], "16": ["H", 0.148848], "17": ["H", 0.115058], "18": ["H", 0.138014], "19": ["H", 0.130669], "20": ["H", 0.11066], "21": ["H", 0.135329]}, "dipole_moment": {"X": -3.1714, "Y": -0.3732, "Z": -0.6655, "Tot": 3.2619}, "functional": "B3LYP", "basis": "6-31+G*", "phase": "gas", "tag": "lis", "state": "successful", "wall_time (s)": 9.028108078986406, "version": "0.0.1", "gauss_version": "ES64L-G16RevC.01", "last_updated": "2021-09-14 22:47:34.247000", "polarizability": 78.1, "fluorinated-solvent": "57271920", "run_ids": ["6141266605eabc155423f81c", "61412681981647fa38338d29"]}