{"_id": "6141162ea181d54f10103ca0", "molecule": {"@module": "pymatgen.core.structure", "@class": "Molecule", "charge": 0, "spin_multiplicity": 1, "sites": [{"name": "F", "species": [{"element": "F", "occu": 1}], "xyz": [1.794418, -2.848294, 1.637102], "properties": {}}, {"name": "F", "species": [{"element": "F", "occu": 1}], "xyz": [3.412323, -2.257174, 2.965499], "properties": {}}, {"name": "F", "species": [{"element": "F", "occu": 1}], "xyz": [3.335638, -4.298395, 2.187415], "properties": {}}, {"name": "F", "species": [{"element": "F", "occu": 1}], "xyz": [3.809129, 2.811441, -1.323997], "properties": {}}, {"name": "F", "species": [{"element": "F", "occu": 1}], "xyz": [5.420847, 3.185367, 0.104777], "properties": {}}, {"name": "F", "species": [{"element": "F", "occu": 1}], "xyz": [5.881827, 2.646959, -1.963691], "properties": {}}, {"name": "O", "species": [{"element": "O", "occu": 1}], "xyz": [3.882248, -2.702951, 0.809686], "properties": {}}, {"name": "O", "species": [{"element": "O", "occu": 1}], "xyz": [5.066087, 1.128633, -0.517747], "properties": {}}, {"name": "C", "species": [{"element": "C", "occu": 1}], "xyz": [4.759704, -1.223918, -0.834263], "properties": {}}, {"name": "C", "species": [{"element": "C", "occu": 1}], "xyz": [3.773332, -1.341096, 0.318644], "properties": {}}, {"name": "C", "species": [{"element": "C", "occu": 1}], "xyz": [4.694669, 0.133756, -1.51236], "properties": {}}, {"name": "C", "species": [{"element": "C", "occu": 1}], "xyz": [3.125331, -3.014276, 1.872622], "properties": {}}, {"name": "C", "species": [{"element": "C", "occu": 1}], "xyz": [5.04472, 2.409527, -0.918153], "properties": {}}, {"name": "H", "species": [{"element": "H", "occu": 1}], "xyz": [5.77595, -1.408125, -0.468791], "properties": {}}, {"name": "H", "species": [{"element": "H", "occu": 1}], "xyz": [4.533362, -1.991724, -1.58402], "properties": {}}, {"name": "H", "species": [{"element": "H", "occu": 1}], "xyz": [2.74387, -1.166151, -0.014596], "properties": {}}, {"name": "H", "species": [{"element": "H", "occu": 1}], "xyz": [4.016568, -0.645638, 1.126397], "properties": {}}, {"name": "H", "species": [{"element": "H", "occu": 1}], "xyz": [5.398889, 0.18926, -2.347921], "properties": {}}, {"name": "H", "species": [{"element": "H", "occu": 1}], "xyz": [3.685329, 0.360128, -1.874582], "properties": {}}]}, "smiles": "FC(F)(F)OCCCOC(F)(F)F", "inchi": "InChI=1S/C5H6F6O2/c6-4(7,8)12-2-1-3-13-5(9,10)11/h1-3H2", "formula_alphabetical": "C5 F6 H6 O2", "chemsys": "C-F-H-O", "energy": -943.7072327, "esp": {"1": ["F", -0.212118], "2": ["F", -0.201004], "3": ["F", -0.170038], "4": ["F", -0.197573], "5": ["F", -0.162011], "6": ["F", -0.19065], "7": ["O", -0.425687], "8": ["O", -0.349582], "9": ["C", -0.112963], "10": ["C", 0.332041], "11": ["C", 0.080827], "12": ["C", 0.659281], "13": ["C", 0.616565], "14": ["H", 0.089588], "15": ["H", 0.061069], "16": ["H", 0.020646], "17": ["H", 0.015423], "18": ["H", 0.082689], "19": ["H", 0.063499]}, "dipole_moment": {"X": 0.2185, "Y": -0.3539, "Z": -2.6314, "Tot": 2.6641}, "functional": "B3LYP", "basis": "6-31+G*", "phase": "gas", "tag": "lis", "state": "successful", "wall_time (s)": 12.437295714044012, "version": "0.0.1", "gauss_version": "ES64L-G16RevC.01", "last_updated": "2021-09-14 21:37:50.631000", "polarizability": 73.1, "fluorinated-solvent": "87265997", "run_ids": ["6141160c29fffe99ad037953", "6141162559998a95d3b70d02"]}