{"_id": "6141180f915ce128b737ad68", "molecule": {"@module": "pymatgen.core.structure", "@class": "Molecule", "charge": 0, "spin_multiplicity": 1, "sites": [{"name": "F", "species": [{"element": "F", "occu": 1}], "xyz": [1.409773, 0.623042, -0.676319], "properties": {}}, {"name": "F", "species": [{"element": "F", "occu": 1}], "xyz": [3.560795, 0.90774, -0.937908], "properties": {}}, {"name": "F", "species": [{"element": "F", "occu": 1}], "xyz": [2.578654, 2.685374, 0.977991], "properties": {}}, {"name": "F", "species": [{"element": "F", "occu": 1}], "xyz": [0.97135, 1.53055, 1.892339], "properties": {}}, {"name": "F", "species": [{"element": "F", "occu": 1}], "xyz": [4.001462, -1.71014, -0.014481], "properties": {}}, {"name": "F", "species": [{"element": "F", "occu": 1}], "xyz": [1.849931, -1.986629, 0.19262], "properties": {}}, {"name": "F", "species": [{"element": "F", "occu": 1}], "xyz": [2.838111, -2.88115, -2.080402], "properties": {}}, {"name": "O", "species": [{"element": "O", "occu": 1}], "xyz": [2.782837, 0.427304, 1.119956], "properties": {}}, {"name": "O", "species": [{"element": "O", "occu": 1}], "xyz": [2.521298, 2.686008, 3.931945], "properties": {}}, {"name": "O", "species": [{"element": "O", "occu": 1}], "xyz": [2.690839, -1.471581, -1.844332], "properties": {}}, {"name": "C", "species": [{"element": "C", "occu": 1}], "xyz": [2.623018, 0.235882, -0.225849], "properties": {}}, {"name": "C", "species": [{"element": "C", "occu": 1}], "xyz": [2.31657, 1.592353, 1.753725], "properties": {}}, {"name": "C", "species": [{"element": "C", "occu": 1}], "xyz": [3.022755, 1.670415, 3.11111], "properties": {}}, {"name": "C", "species": [{"element": "C", "occu": 1}], "xyz": [2.800728, -1.304787, -0.474211], "properties": {}}, {"name": "C", "species": [{"element": "C", "occu": 1}], "xyz": [3.024853, 4.000291, 3.68022], "properties": {}}, {"name": "H", "species": [{"element": "H", "occu": 1}], "xyz": [2.842996, 0.718799, 3.619264], "properties": {}}, {"name": "H", "species": [{"element": "H", "occu": 1}], "xyz": [4.100321, 1.774616, 2.914272], "properties": {}}, {"name": "H", "species": [{"element": "H", "occu": 1}], "xyz": [4.124841, 4.00107, 3.664043], "properties": {}}, {"name": "H", "species": [{"element": "H", "occu": 1}], "xyz": [2.647428, 4.407895, 2.735652], "properties": {}}, {"name": "H", "species": [{"element": "H", "occu": 1}], "xyz": [2.67527, 4.618538, 4.509634], "properties": {}}]}, "smiles": "FC(F)(OC(F)(F)COC)C(F)(F)OF", "inchi": "InChI=1S/C5H5F7O3/c1-13-2-3(6,7)14-4(8,9)5(10,11)15-12/h2H2,1H3", "formula_alphabetical": "C5 F7 H5 O3", "chemsys": "C-F-H-O", "energy": -1118.0088365, "esp": {"1": ["F", -0.170241], "2": ["F", -0.184506], "3": ["F", -0.19771], "4": ["F", -0.201231], "5": ["F", -0.153228], "6": ["F", -0.145728], "7": ["F", -0.020226], "8": ["O", -0.486266], "9": ["O", -0.347551], "10": ["O", -0.156055], "11": ["C", 0.56747], "12": ["C", 0.675649], "13": ["C", -0.082191], "14": ["C", 0.428263], "15": ["C", -0.016691], "16": ["H", 0.144105], "17": ["H", 0.121239], "18": ["H", 0.06286], "19": ["H", 0.061625], "20": ["H", 0.100413]}, "dipole_moment": {"X": 1.7295, "Y": 1.5757, "Z": 1.7289, "Tot": 2.9091}, "functional": "B3LYP", "basis": "6-31+G*", "phase": "gas", "tag": "lis", "state": "successful", "wall_time (s)": 13.745540197007358, "version": "0.0.1", "gauss_version": "ES64L-G16RevC.01", "last_updated": "2021-09-14 21:45:51.151000", "polarizability": 82.57, "fluorinated-solvent": "154623572", "run_ids": ["614117ed36d6c1fa23991efe", "61411802096dd5c20acebbf9"]}