{"_id": "6141155b270afb28c6ff64b7", "molecule": {"@module": "pymatgen.core.structure", "@class": "Molecule", "charge": 0, "spin_multiplicity": 1, "sites": [{"name": "F", "species": [{"element": "F", "occu": 1}], "xyz": [1.502409, -4.022092, -3.472613], "properties": {}}, {"name": "F", "species": [{"element": "F", "occu": 1}], "xyz": [3.455341, -4.882961, -2.862326], "properties": {}}, {"name": "O", "species": [{"element": "O", "occu": 1}], "xyz": [2.660436, -0.795051, -2.773932], "properties": {}}, {"name": "C", "species": [{"element": "C", "occu": 1}], "xyz": [0.403827, 0.255781, -2.680008], "properties": {}}, {"name": "C", "species": [{"element": "C", "occu": 1}], "xyz": [1.925672, 0.431906, -2.756102], "properties": {}}, {"name": "C", "species": [{"element": "C", "occu": 1}], "xyz": [-0.133409, -0.20366, -1.314443], "properties": {}}, {"name": "C", "species": [{"element": "C", "occu": 1}], "xyz": [2.717746, -1.427311, -4.044909], "properties": {}}, {"name": "C", "species": [{"element": "C", "occu": 1}], "xyz": [3.463061, -2.746133, -3.880801], "properties": {}}, {"name": "C", "species": [{"element": "C", "occu": 1}], "xyz": [0.321189, -1.602743, -0.877413], "properties": {}}, {"name": "C", "species": [{"element": "C", "occu": 1}], "xyz": [2.745574, -3.702293, -2.953732], "properties": {}}, {"name": "H", "species": [{"element": "H", "occu": 1}], "xyz": [-0.048207, 1.226776, -2.930122], "properties": {}}, {"name": "H", "species": [{"element": "H", "occu": 1}], "xyz": [0.075248, -0.442656, -3.462215], "properties": {}}, {"name": "H", "species": [{"element": "H", "occu": 1}], "xyz": [2.286039, 0.971383, -1.872099], "properties": {}}, {"name": "H", "species": [{"element": "H", "occu": 1}], "xyz": [2.196454, 1.027702, -3.643416], "properties": {}}, {"name": "H", "species": [{"element": "H", "occu": 1}], "xyz": [0.161682, 0.531878, -0.551024], "properties": {}}, {"name": "H", "species": [{"element": "H", "occu": 1}], "xyz": [-1.231369, -0.17827, -1.352705], "properties": {}}, {"name": "H", "species": [{"element": "H", "occu": 1}], "xyz": [3.250216, -0.784332, -4.764979], "properties": {}}, {"name": "H", "species": [{"element": "H", "occu": 1}], "xyz": [1.709724, -1.614958, -4.441324], "properties": {}}, {"name": "H", "species": [{"element": "H", "occu": 1}], "xyz": [4.461734, -2.560982, -3.469918], "properties": {}}, {"name": "H", "species": [{"element": "H", "occu": 1}], "xyz": [3.575916, -3.238401, -4.853815], "properties": {}}, {"name": "H", "species": [{"element": "H", "occu": 1}], "xyz": [1.402683, -1.633089, -0.712979], "properties": {}}, {"name": "H", "species": [{"element": "H", "occu": 1}], "xyz": [-0.175165, -1.899376, 0.05462], "properties": {}}, {"name": "H", "species": [{"element": "H", "occu": 1}], "xyz": [0.080246, -2.352465, -1.641605], "properties": {}}, {"name": "H", "species": [{"element": "H", "occu": 1}], "xyz": [2.58789, -3.324357, -1.942273], "properties": {}}]}, "smiles": "FC(F)CCOCCCC", "inchi": "InChI=1S/C7H14F2O/c1-2-3-5-10-6-4-7(8)9/h7H,2-6H2,1H3", "formula_alphabetical": "C7 F2 H14 O1", "chemsys": "C-F-H-O", "energy": -550.104185692, "esp": {"1": ["F", -0.266206], "2": ["F", -0.291717], "3": ["O", -0.433574], "4": ["C", -0.16301], "5": ["C", 0.100203], "6": ["C", 0.206221], "7": ["C", 0.189411], "8": ["C", -0.299335], "9": ["C", -0.193381], "10": ["C", 0.537437], "11": ["H", 0.028633], "12": ["H", 0.070364], "13": ["H", 0.071527], "14": ["H", 0.030145], "15": ["H", -0.03138], "16": ["H", -0.0341], "17": ["H", 0.042388], "18": ["H", 0.027224], "19": ["H", 0.115615], "20": ["H", 0.11415], "21": ["H", 0.066752], "22": ["H", 0.026597], "23": ["H", 0.051558], "24": ["H", 0.034479]}, "dipole_moment": {"X": -0.0436, "Y": 2.98, "Z": -0.7256, "Tot": 3.0674}, "functional": "B3LYP", "basis": "6-31+G*", "phase": "gas", "tag": "lis", "state": "successful", "wall_time (s)": 10.631731691071764, "version": "0.0.1", "gauss_version": "ES64L-G16RevC.01", "last_updated": "2021-09-14 21:34:18.876000", "polarizability": 88.56, "fluorinated-solvent": "132246318", "run_ids": ["6141152a92d04748beb0584e", "6141154a8aa6dd0f983392d4"]}