{"_id": "61410c37d457439a7c4f03c1", "molecule": {"@module": "pymatgen.core.structure", "@class": "Molecule", "charge": 0, "spin_multiplicity": 1, "sites": [{"name": "F", "species": [{"element": "F", "occu": 1}], "xyz": [1.250642, 0.026634, 0.125263], "properties": {}}, {"name": "F", "species": [{"element": "F", "occu": 1}], "xyz": [3.172683, -0.022044, 1.217167], "properties": {}}, {"name": "F", "species": [{"element": "F", "occu": 1}], "xyz": [2.725949, 2.354429, -0.013053], "properties": {}}, {"name": "F", "species": [{"element": "F", "occu": 1}], "xyz": [4.379289, 1.238256, -0.97493], "properties": {}}, {"name": "F", "species": [{"element": "F", "occu": 1}], "xyz": [2.873638, -1.110459, -4.859498], "properties": {}}, {"name": "F", "species": [{"element": "F", "occu": 1}], "xyz": [2.452771, -3.284894, -4.963566], "properties": {}}, {"name": "O", "species": [{"element": "O", "occu": 1}], "xyz": [2.503551, -1.245016, -2.050793], "properties": {}}, {"name": "C", "species": [{"element": "C", "occu": 1}], "xyz": [2.612214, -0.015381, -0.030608], "properties": {}}, {"name": "C", "species": [{"element": "C", "occu": 1}], "xyz": [3.019995, -1.299951, -0.736219], "properties": {}}, {"name": "C", "species": [{"element": "C", "occu": 1}], "xyz": [3.02366, 1.267118, -0.775744], "properties": {}}, {"name": "C", "species": [{"element": "C", "occu": 1}], "xyz": [2.855486, -2.361468, -2.845801], "properties": {}}, {"name": "C", "species": [{"element": "C", "occu": 1}], "xyz": [2.245825, -2.147379, -4.218285], "properties": {}}, {"name": "H", "species": [{"element": "H", "occu": 1}], "xyz": [4.116672, -1.364624, -0.735547], "properties": {}}, {"name": "H", "species": [{"element": "H", "occu": 1}], "xyz": [2.604686, -2.144706, -0.167368], "properties": {}}, {"name": "H", "species": [{"element": "H", "occu": 1}], "xyz": [2.522587, 1.350289, -1.742309], "properties": {}}, {"name": "H", "species": [{"element": "H", "occu": 1}], "xyz": [3.946207, -2.455007, -2.953782], "properties": {}}, {"name": "H", "species": [{"element": "H", "occu": 1}], "xyz": [2.453231, -3.293964, -2.422492], "properties": {}}, {"name": "H", "species": [{"element": "H", "occu": 1}], "xyz": [1.173535, -1.932353, -4.196224], "properties": {}}]}, "smiles": "FC(F)(COCC(F)F)C(F)F", "inchi": "InChI=1S/C5H6F6O/c6-3(7)1-12-2-5(10,11)4(8)9/h3-4H,1-2H2", "formula_alphabetical": "C5 F6 H6 O1", "chemsys": "C-F-H-O", "energy": -868.445514752, "esp": {"1": ["F", -0.205643], "2": ["F", -0.203338], "3": ["F", -0.217904], "4": ["F", -0.219322], "5": ["F", -0.241556], "6": ["F", -0.267305], "7": ["O", -0.359425], "8": ["C", 0.327168], "9": ["C", 0.009514], "10": ["C", 0.412645], "11": ["C", -0.078738], "12": ["C", 0.466911], "13": ["H", 0.078113], "14": ["H", 0.123993], "15": ["H", 0.071471], "16": ["H", 0.134063], "17": ["H", 0.095464], "18": ["H", 0.073889]}, "dipole_moment": {"X": -0.3989, "Y": -2.6802, "Z": -0.2175, "Tot": 2.7184}, "functional": "B3LYP", "basis": "6-31+G*", "phase": "gas", "tag": "lis", "state": "successful", "wall_time (s)": 10.833212769939564, "version": "0.0.1", "gauss_version": "ES64L-G16RevC.01", "last_updated": "2021-09-14 20:55:18.845000", "polarizability": 68.68, "fluorinated-solvent": "88574559", "run_ids": ["61410b5ee869bb860fc19ab4", "61410bf9c5f7d0496fa477f3"]}