{"_id": "613a4ca269a4f11bbfe564df", "molecule": {"@module": "pymatgen.core.structure", "@class": "Molecule", "charge": 0, "spin_multiplicity": 1, "sites": [{"name": "F", "species": [{"element": "F", "occu": 1}], "xyz": [1.044441, 0.480815, -0.036], "properties": {}}, {"name": "F", "species": [{"element": "F", "occu": 1}], "xyz": [2.972213, 1.393214, -0.513389], "properties": {}}, {"name": "F", "species": [{"element": "F", "occu": 1}], "xyz": [0.992574, -0.701371, -2.542127], "properties": {}}, {"name": "F", "species": [{"element": "F", "occu": 1}], "xyz": [2.919092, 0.202733, -3.015374], "properties": {}}, {"name": "F", "species": [{"element": "F", "occu": 1}], "xyz": [2.697975, -1.967146, -3.039507], "properties": {}}, {"name": "O", "species": [{"element": "O", "occu": 1}], "xyz": [2.842509, -0.042442, 1.221999], "properties": {}}, {"name": "C", "species": [{"element": "C", "occu": 1}], "xyz": [2.741162, -0.953187, -0.927022], "properties": {}}, {"name": "C", "species": [{"element": "C", "occu": 1}], "xyz": [2.403391, 0.230819, -0.029154], "properties": {}}, {"name": "C", "species": [{"element": "C", "occu": 1}], "xyz": [2.327069, -0.833502, -2.383467], "properties": {}}, {"name": "C", "species": [{"element": "C", "occu": 1}], "xyz": [2.611517, 0.977399, 2.234941], "properties": {}}, {"name": "C", "species": [{"element": "C", "occu": 1}], "xyz": [3.181922, 0.445, 3.535339], "properties": {}}, {"name": "H", "species": [{"element": "H", "occu": 1}], "xyz": [3.822717, -1.102015, -0.898539], "properties": {}}, {"name": "H", "species": [{"element": "H", "occu": 1}], "xyz": [2.256519, -1.840364, -0.513798], "properties": {}}, {"name": "H", "species": [{"element": "H", "occu": 1}], "xyz": [3.109306, 1.900399, 1.920951], "properties": {}}, {"name": "H", "species": [{"element": "H", "occu": 1}], "xyz": [1.534544, 1.159218, 2.308275], "properties": {}}, {"name": "H", "species": [{"element": "H", "occu": 1}], "xyz": [4.255537, 0.252273, 3.438691], "properties": {}}, {"name": "H", "species": [{"element": "H", "occu": 1}], "xyz": [3.031336, 1.181896, 4.332488], "properties": {}}, {"name": "H", "species": [{"element": "H", "occu": 1}], "xyz": [2.684867, -0.486722, 3.825095], "properties": {}}]}, "smiles": "FC(F)(OCC)CC(F)(F)F", "inchi": "InChI=1S/C5H7F5O/c1-2-11-5(9,10)3-4(6,7)8/h2-3H2,1H3", "formula_alphabetical": "C5 F5 H7 O1", "chemsys": "C-F-H-O", "energy": -769.240167156, "esp": {"1": ["F", -0.25398], "2": ["F", -0.255366], "3": ["F", -0.210958], "4": ["F", -0.210134], "5": ["F", -0.234824], "6": ["O", -0.448619], "7": ["C", -0.472642], "8": ["C", 0.699596], "9": ["C", 0.688815], "10": ["C", 0.339678], "11": ["C", -0.340773], "12": ["H", 0.184768], "13": ["H", 0.184173], "14": ["H", 0.014465], "15": ["H", 0.016464], "16": ["H", 0.10719], "17": ["H", 0.086845], "18": ["H", 0.105303]}, "dipole_moment": {"X": 1.101, "Y": -0.441, "Z": 3.6193, "Tot": 3.8087}, "functional": "B3LYP", "basis": "6-31+G*", "phase": "gas", "tag": "lis", "state": "successful", "wall_time (s)": 8.497301527997479, "version": "0.0.1", "gauss_version": "ES64L-G16RevC.01", "last_updated": "2021-09-09 18:04:17.925000", "polarizability": 67.9, "fluorinated-solvent": "54253887", "run_ids": ["613a49a4a41cf86edbf5a478", "613a4b6aa82c81fe785ab0df"]}