{"_id": "614121f13e8a8d9d53da6153", "molecule": {"@module": "pymatgen.core.structure", "@class": "Molecule", "charge": 0, "spin_multiplicity": 1, "sites": [{"name": "F", "species": [{"element": "F", "occu": 1}], "xyz": [2.482712, 2.085851, 2.599925], "properties": {}}, {"name": "F", "species": [{"element": "F", "occu": 1}], "xyz": [0.959777, 0.692539, 1.87014], "properties": {}}, {"name": "F", "species": [{"element": "F", "occu": 1}], "xyz": [1.251318, 0.768576, -2.59], "properties": {}}, {"name": "F", "species": [{"element": "F", "occu": 1}], "xyz": [3.244026, 1.016306, -3.535374], "properties": {}}, {"name": "O", "species": [{"element": "O", "occu": 1}], "xyz": [2.770907, 1.105832, 0.588968], "properties": {}}, {"name": "C", "species": [{"element": "C", "occu": 1}], "xyz": [2.821621, 2.196105, -1.531155], "properties": {}}, {"name": "C", "species": [{"element": "C", "occu": 1}], "xyz": [2.146538, 2.171848, -0.168832], "properties": {}}, {"name": "C", "species": [{"element": "C", "occu": 1}], "xyz": [2.32821, 0.91927, 1.862122], "properties": {}}, {"name": "C", "species": [{"element": "C", "occu": 1}], "xyz": [2.597206, 0.923805, -2.321079], "properties": {}}, {"name": "C", "species": [{"element": "C", "occu": 1}], "xyz": [3.051109, -0.221058, 2.531966], "properties": {}}, {"name": "H", "species": [{"element": "H", "occu": 1}], "xyz": [2.425893, 3.031465, -2.12021], "properties": {}}, {"name": "H", "species": [{"element": "H", "occu": 1}], "xyz": [3.901028, 2.341321, -1.413413], "properties": {}}, {"name": "H", "species": [{"element": "H", "occu": 1}], "xyz": [1.074634, 1.972048, -0.257427], "properties": {}}, {"name": "H", "species": [{"element": "H", "occu": 1}], "xyz": [2.295805, 3.1219, 0.352786], "properties": {}}, {"name": "H", "species": [{"element": "H", "occu": 1}], "xyz": [2.940219, 0.011863, -1.826468], "properties": {}}, {"name": "H", "species": [{"element": "H", "occu": 1}], "xyz": [4.121757, -0.005549, 2.558959], "properties": {}}, {"name": "H", "species": [{"element": "H", "occu": 1}], "xyz": [2.671877, -0.334851, 3.549867], "properties": {}}, {"name": "H", "species": [{"element": "H", "occu": 1}], "xyz": [2.876455, -1.140979, 1.969082], "properties": {}}]}, "smiles": "FC(F)(OCCC(F)F)C", "inchi": "InChI=1S/C5H8F4O/c1-5(8,9)10-3-2-4(6)7/h4H,2-3H2,1H3", "formula_alphabetical": "C5 F4 H8 O1", "chemsys": "C-F-H-O", "energy": -669.993385799, "esp": {"1": ["F", -0.278765], "2": ["F", -0.277433], "3": ["F", -0.267902], "4": ["F", -0.289618], "5": ["O", -0.427052], "6": ["C", -0.278441], "7": ["C", 0.157807], "8": ["C", 0.757331], "9": ["C", 0.544781], "10": ["C", -0.557244], "11": ["H", 0.119284], "12": ["H", 0.111102], "13": ["H", 0.058662], "14": ["H", 0.070906], "15": ["H", 0.038362], "16": ["H", 0.169365], "17": ["H", 0.176765], "18": ["H", 0.172091]}, "dipole_moment": {"X": 1.6528, "Y": 0.0443, "Z": 1.3642, "Tot": 2.1435}, "functional": "B3LYP", "basis": "6-31+G*", "phase": "gas", "tag": "lis", "state": "successful", "wall_time (s)": 8.087156981928274, "version": "0.0.1", "gauss_version": "ES64L-G16RevC.01", "last_updated": "2021-09-14 22:28:01.642000", "polarizability": 66.63, "fluorinated-solvent": "117787857", "run_ids": ["614121db0e958f27223bafc4", "614121ea5759fc773c00fea2"]}