{"_id": "613a55501f4eae55ea0cfe15", "molecule": {"@module": "pymatgen.core.structure", "@class": "Molecule", "charge": 0, "spin_multiplicity": 1, "sites": [{"name": "F", "species": [{"element": "F", "occu": 1}], "xyz": [0.755649, 0.069143, 0.309351], "properties": {}}, {"name": "F", "species": [{"element": "F", "occu": 1}], "xyz": [2.355048, 0.845657, -0.965504], "properties": {}}, {"name": "F", "species": [{"element": "F", "occu": 1}], "xyz": [2.240881, -2.17379, 0.890971], "properties": {}}, {"name": "F", "species": [{"element": "F", "occu": 1}], "xyz": [3.582332, 1.482052, 3.699125], "properties": {}}, {"name": "F", "species": [{"element": "F", "occu": 1}], "xyz": [4.611254, 2.454471, 2.040963], "properties": {}}, {"name": "F", "species": [{"element": "F", "occu": 1}], "xyz": [3.045909, 3.52437, 3.131211], "properties": {}}, {"name": "F", "species": [{"element": "F", "occu": 1}], "xyz": [0.193622, -2.560862, -0.835864], "properties": {}}, {"name": "F", "species": [{"element": "F", "occu": 1}], "xyz": [0.464882, -0.937596, -2.256823], "properties": {}}, {"name": "F", "species": [{"element": "F", "occu": 1}], "xyz": [1.035743, -2.960787, -2.806491], "properties": {}}, {"name": "O", "species": [{"element": "O", "occu": 1}], "xyz": [2.756696, 0.532284, 1.226946], "properties": {}}, {"name": "O", "species": [{"element": "O", "occu": 1}], "xyz": [2.29724, -1.915374, -1.381118], "properties": {}}, {"name": "C", "species": [{"element": "C", "occu": 1}], "xyz": [2.110403, 0.060747, 0.13251], "properties": {}}, {"name": "C", "species": [{"element": "C", "occu": 1}], "xyz": [2.64525, -1.366416, -0.140506], "properties": {}}, {"name": "C", "species": [{"element": "C", "occu": 1}], "xyz": [2.343332, 1.821089, 1.693905], "properties": {}}, {"name": "C", "species": [{"element": "C", "occu": 1}], "xyz": [3.416596, 2.312843, 2.651095], "properties": {}}, {"name": "C", "species": [{"element": "C", "occu": 1}], "xyz": [1.000083, -2.083933, -1.797191], "properties": {}}, {"name": "H", "species": [{"element": "H", "occu": 1}], "xyz": [3.735427, -1.327522, -0.155671], "properties": {}}, {"name": "H", "species": [{"element": "H", "occu": 1}], "xyz": [2.262712, 2.534537, 0.869468], "properties": {}}, {"name": "H", "species": [{"element": "H", "occu": 1}], "xyz": [1.3944, 1.749129, 2.231533], "properties": {}}]}, "smiles": "FC(F)(OCC(F)(F)F)[C@@H](F)OC(F)(F)F", "inchi": "InChI=1S/C5H3F9O2/c6-2(16-5(12,13)14)4(10,11)15-1-3(7,8)9/h2H,1H2/t2-/m0/s1", "formula_alphabetical": "C5 F9 H3 O2", "chemsys": "C-F-H-O", "energy": -1241.42348884, "esp": {"1": ["F", -0.155302], "2": ["F", -0.181972], "3": ["F", -0.202579], "4": ["F", -0.197691], "5": ["F", -0.202496], "6": ["F", -0.237231], "7": ["F", -0.184528], "8": ["F", -0.207896], "9": ["F", -0.183237], "10": ["O", -0.340564], "11": ["O", -0.385303], "12": ["C", 0.422553], "13": ["C", 0.356121], "14": ["C", -0.17], "15": ["C", 0.683993], "16": ["C", 0.734096], "17": ["H", 0.119946], "18": ["H", 0.164422], "19": ["H", 0.16767]}, "dipole_moment": {"X": 0.2346, "Y": 1.2105, "Z": 0.0993, "Tot": 1.237}, "functional": "B3LYP", "basis": "6-31+G*", "phase": "gas", "tag": "lis", "state": "successful", "wall_time (s)": 17.12630209105555, "version": "0.0.1", "gauss_version": "ES64L-G16RevC.01", "last_updated": "2021-09-09 18:41:19.825000", "polarizability": 75.54, "fluorinated-solvent": "11579838", "run_ids": ["613a4adf1cae84610e7a3aa2", "613a554b878b3f0af808abb2"]}