{"_id": "613a4e8070519a66779391f9", "molecule": {"@module": "pymatgen.core.structure", "@class": "Molecule", "charge": 0, "spin_multiplicity": 1, "sites": [{"name": "F", "species": [{"element": "F", "occu": 1}], "xyz": [5.584624, -4.2148, -2.392754], "properties": {}}, {"name": "F", "species": [{"element": "F", "occu": 1}], "xyz": [6.971352, -4.358195, -0.722757], "properties": {}}, {"name": "F", "species": [{"element": "F", "occu": 1}], "xyz": [7.579592, -3.337018, -2.559194], "properties": {}}, {"name": "F", "species": [{"element": "F", "occu": 1}], "xyz": [-0.255018, 2.131127, -0.360347], "properties": {}}, {"name": "F", "species": [{"element": "F", "occu": 1}], "xyz": [1.59781, 2.525621, 0.709133], "properties": {}}, {"name": "F", "species": [{"element": "F", "occu": 1}], "xyz": [1.195235, 3.549065, -1.179904], "properties": {}}, {"name": "O", "species": [{"element": "O", "occu": 1}], "xyz": [3.945697, -0.414761, -1.308443], "properties": {}}, {"name": "O", "species": [{"element": "O", "occu": 1}], "xyz": [6.132863, -2.342593, -1.270918], "properties": {}}, {"name": "O", "species": [{"element": "O", "occu": 1}], "xyz": [1.687893, 1.429298, -1.25404], "properties": {}}, {"name": "C", "species": [{"element": "C", "occu": 1}], "xyz": [4.555825, -0.941115, -0.141566], "properties": {}}, {"name": "C", "species": [{"element": "C", "occu": 1}], "xyz": [2.589455, -0.771674, -1.518345], "properties": {}}, {"name": "C", "species": [{"element": "C", "occu": 1}], "xyz": [5.048052, -2.369581, -0.313645], "properties": {}}, {"name": "C", "species": [{"element": "C", "occu": 1}], "xyz": [1.613837, 0.084157, -0.72579], "properties": {}}, {"name": "C", "species": [{"element": "C", "occu": 1}], "xyz": [6.554481, -3.531069, -1.722881], "properties": {}}, {"name": "C", "species": [{"element": "C", "occu": 1}], "xyz": [1.072854, 2.381361, -0.540053], "properties": {}}, {"name": "H", "species": [{"element": "H", "occu": 1}], "xyz": [3.876052, -0.91432, 0.724859], "properties": {}}, {"name": "H", "species": [{"element": "H", "occu": 1}], "xyz": [5.405201, -0.287358, 0.077169], "properties": {}}, {"name": "H", "species": [{"element": "H", "occu": 1}], "xyz": [2.403687, -0.63936, -2.58824], "properties": {}}, {"name": "H", "species": [{"element": "H", "occu": 1}], "xyz": [2.399779, -1.827967, -1.269851], "properties": {}}, {"name": "H", "species": [{"element": "H", "occu": 1}], "xyz": [4.25575, -3.028115, -0.68444], "properties": {}}, {"name": "H", "species": [{"element": "H", "occu": 1}], "xyz": [5.423273, -2.758873, 0.639951], "properties": {}}, {"name": "H", "species": [{"element": "H", "occu": 1}], "xyz": [0.591707, -0.292006, -0.849999], "properties": {}}, {"name": "H", "species": [{"element": "H", "occu": 1}], "xyz": [1.864232, 0.100427, 0.340001], "properties": {}}]}, "smiles": "FC(F)(F)OCCOCCOC(F)(F)F", "inchi": "InChI=1S/C6H8F6O3/c7-5(8,9)14-3-1-13-2-4-15-6(10,11)12/h1-4H2", "formula_alphabetical": "C6 F6 H8 O3", "chemsys": "C-F-H-O", "energy": -1058.22228232, "esp": {"1": ["F", -0.223778], "2": ["F", -0.228445], "3": ["F", -0.195969], "4": ["F", -0.217222], "5": ["F", -0.216115], "6": ["F", -0.186113], "7": ["O", -0.43354], "8": ["O", -0.340834], "9": ["O", -0.343535], "10": ["C", 0.183916], "11": ["C", 0.224552], "12": ["C", -0.011252], "13": ["C", 0.047423], "14": ["C", 0.7374], "15": ["C", 0.697007], "16": ["H", 0.007958], "17": ["H", 0.091435], "18": ["H", 0.074523], "19": ["H", -0.002847], "20": ["H", 0.105116], "21": ["H", 0.082933], "22": ["H", 0.057696], "23": ["H", 0.089692]}, "dipole_moment": {"X": -1.9297, "Y": -2.2783, "Z": 2.4624, "Tot": 3.8702}, "functional": "B3LYP", "basis": "6-31+G*", "phase": "gas", "tag": "lis", "state": "successful", "wall_time (s)": 13.828412079019472, "version": "0.0.1", "gauss_version": "ES64L-G16RevC.01", "last_updated": "2021-09-09 18:12:16.576000", "polarizability": 89.61, "fluorinated-solvent": "10514282", "run_ids": ["613a4a3874370554220e51ca", "613a4e79600bbb8233de17fa"]}