{"_id": "614119598cf0f96ba37c060a", "molecule": {"@module": "pymatgen.core.structure", "@class": "Molecule", "charge": 0, "spin_multiplicity": 1, "sites": [{"name": "F", "species": [{"element": "F", "occu": 1}], "xyz": [1.693432, -0.238181, 1.296237], "properties": {}}, {"name": "F", "species": [{"element": "F", "occu": 1}], "xyz": [0.476769, -0.499698, -0.515683], "properties": {}}, {"name": "F", "species": [{"element": "F", "occu": 1}], "xyz": [3.711804, 1.809133, -2.222218], "properties": {}}, {"name": "F", "species": [{"element": "F", "occu": 1}], "xyz": [2.287202, 3.168558, -3.239778], "properties": {}}, {"name": "F", "species": [{"element": "F", "occu": 1}], "xyz": [2.638124, -2.78232, 0.647364], "properties": {}}, {"name": "F", "species": [{"element": "F", "occu": 1}], "xyz": [1.729483, -2.831743, -1.334704], "properties": {}}, {"name": "F", "species": [{"element": "F", "occu": 1}], "xyz": [3.900629, -2.857765, -1.13092], "properties": {}}, {"name": "F", "species": [{"element": "F", "occu": 1}], "xyz": [2.082767, 4.647705, -0.849187], "properties": {}}, {"name": "O", "species": [{"element": "O", "occu": 1}], "xyz": [1.772651, 1.319733, -0.216721], "properties": {}}, {"name": "C", "species": [{"element": "C", "occu": 1}], "xyz": [1.687172, -0.043998, -0.045959], "properties": {}}, {"name": "C", "species": [{"element": "C", "occu": 1}], "xyz": [2.836065, -0.812399, -0.698986], "properties": {}}, {"name": "C", "species": [{"element": "C", "occu": 1}], "xyz": [1.447847, 1.861412, -1.50109], "properties": {}}, {"name": "C", "species": [{"element": "C", "occu": 1}], "xyz": [2.63893, 2.658752, -2.014454], "properties": {}}, {"name": "C", "species": [{"element": "C", "occu": 1}], "xyz": [2.758568, -2.3285, -0.617635], "properties": {}}, {"name": "C", "species": [{"element": "C", "occu": 1}], "xyz": [3.137724, 3.776359, -1.110808], "properties": {}}, {"name": "H", "species": [{"element": "H", "occu": 1}], "xyz": [2.900062, -0.545235, -1.755376], "properties": {}}, {"name": "H", "species": [{"element": "H", "occu": 1}], "xyz": [3.761129, -0.492126, -0.214797], "properties": {}}, {"name": "H", "species": [{"element": "H", "occu": 1}], "xyz": [1.200986, 1.085916, -2.231047], "properties": {}}, {"name": "H", "species": [{"element": "H", "occu": 1}], "xyz": [0.591425, 2.530019, -1.388082], "properties": {}}, {"name": "H", "species": [{"element": "H", "occu": 1}], "xyz": [3.489501, 3.356045, -0.165416], "properties": {}}, {"name": "H", "species": [{"element": "H", "occu": 1}], "xyz": [3.934649, 4.325175, -1.62046], "properties": {}}]}, "smiles": "FC(F)(OCC(F)(F)CF)CC(F)(F)F", "inchi": "InChI=1S/C6H6F8O/c7-2-4(8,9)3-15-6(13,14)1-5(10,11)12/h1-3H2", "formula_alphabetical": "C6 F8 H6 O1", "chemsys": "C-F-H-O", "energy": -1106.27276335, "esp": {"1": ["F", -0.222295], "2": ["F", -0.229485], "3": ["F", -0.258301], "4": ["F", -0.222935], "5": ["F", -0.190761], "6": ["F", -0.207528], "7": ["F", -0.22112], "8": ["F", -0.226233], "9": ["O", -0.367222], "10": ["C", 0.702924], "11": ["C", -0.549016], "12": ["C", -0.011171], "13": ["C", 0.422004], "14": ["C", 0.656237], "15": ["C", 0.025957], "16": ["H", 0.226939], "17": ["H", 0.207413], "18": ["H", 0.106048], "19": ["H", 0.128233], "20": ["H", 0.102554], "21": ["H", 0.127759]}, "dipole_moment": {"X": 1.548, "Y": 1.9173, "Z": -0.9275, "Tot": 2.633}, "functional": "B3LYP", "basis": "6-31+G*", "phase": "gas", "tag": "lis", "state": "successful", "wall_time (s)": 13.811365102999844, "version": "0.0.1", "gauss_version": "ES64L-G16RevC.01", "last_updated": "2021-09-14 21:51:20.759000", "polarizability": 80.42, "fluorinated-solvent": "58341851", "run_ids": ["6141192f7931de1d59c8f64f", "6141194fc7ec73e182daf170"]}