{"_id": "61411328acabf67e3df8dc87", "molecule": {"@module": "pymatgen.core.structure", "@class": "Molecule", "charge": 0, "spin_multiplicity": 1, "sites": [{"name": "F", "species": [{"element": "F", "occu": 1}], "xyz": [3.098265, -0.850183, -0.695703], "properties": {}}, {"name": "F", "species": [{"element": "F", "occu": 1}], "xyz": [1.135995, -0.282937, 0.130095], "properties": {}}, {"name": "F", "species": [{"element": "F", "occu": 1}], "xyz": [2.254195, 1.601497, -1.45442], "properties": {}}, {"name": "F", "species": [{"element": "F", "occu": 1}], "xyz": [2.058892, 2.23817, 0.650434], "properties": {}}, {"name": "F", "species": [{"element": "F", "occu": 1}], "xyz": [4.053413, -0.868642, 3.964927], "properties": {}}, {"name": "F", "species": [{"element": "F", "occu": 1}], "xyz": [2.1296, -0.279143, 4.883425], "properties": {}}, {"name": "F", "species": [{"element": "F", "occu": 1}], "xyz": [4.343107, 3.080105, -0.685032], "properties": {}}, {"name": "F", "species": [{"element": "F", "occu": 1}], "xyz": [4.704606, 1.795042, 1.074798], "properties": {}}, {"name": "F", "species": [{"element": "F", "occu": 1}], "xyz": [2.376394, -2.957672, 4.683405], "properties": {}}, {"name": "F", "species": [{"element": "F", "occu": 1}], "xyz": [0.863018, -2.197872, 3.255511], "properties": {}}, {"name": "O", "species": [{"element": "O", "occu": 1}], "xyz": [2.970028, -0.426969, 1.429893], "properties": {}}, {"name": "C", "species": [{"element": "C", "occu": 1}], "xyz": [2.478974, -0.059779, 0.217433], "properties": {}}, {"name": "C", "species": [{"element": "C", "occu": 1}], "xyz": [2.740118, 1.419749, -0.200013], "properties": {}}, {"name": "C", "species": [{"element": "C", "occu": 1}], "xyz": [2.395631, 0.155796, 2.614666], "properties": {}}, {"name": "C", "species": [{"element": "C", "occu": 1}], "xyz": [2.701626, -0.800415, 3.757981], "properties": {}}, {"name": "C", "species": [{"element": "C", "occu": 1}], "xyz": [4.234309, 1.812969, -0.206348], "properties": {}}, {"name": "C", "species": [{"element": "C", "occu": 1}], "xyz": [2.201662, -2.24106, 3.541564], "properties": {}}, {"name": "H", "species": [{"element": "H", "occu": 1}], "xyz": [2.862954, 1.119234, 2.830941], "properties": {}}, {"name": "H", "species": [{"element": "H", "occu": 1}], "xyz": [1.313983, 0.263018, 2.513834], "properties": {}}, {"name": "H", "species": [{"element": "H", "occu": 1}], "xyz": [4.833364, 1.138074, -0.82327], "properties": {}}, {"name": "H", "species": [{"element": "H", "occu": 1}], "xyz": [2.727435, -2.73263, 2.719959], "properties": {}}]}, "smiles": "FC(F)(OCC(F)(F)C(F)F)C(F)(F)C(F)F", "inchi": "InChI=1S/C6H4F10O/c7-2(8)4(11,12)1-17-6(15,16)5(13,14)3(9)10/h2-3H,1H2", "formula_alphabetical": "C6 F10 H4 O1", "chemsys": "C-F-H-O", "energy": -1304.73202055, "esp": {"1": ["F", -0.197056], "2": ["F", -0.173905], "3": ["F", -0.162182], "4": ["F", -0.138989], "5": ["F", -0.208711], "6": ["F", -0.196153], "7": ["F", -0.17051], "8": ["F", -0.173114], "9": ["F", -0.203559], "10": ["F", -0.199433], "11": ["O", -0.366393], "12": ["C", 0.54067], "13": ["C", 0.223508], "14": ["C", -0.130099], "15": ["C", 0.415995], "16": ["C", 0.273132], "17": ["C", 0.314769], "18": ["H", 0.16877], "19": ["H", 0.134424], "20": ["H", 0.12826], "21": ["H", 0.120574]}, "dipole_moment": {"X": 0.9642, "Y": 0.018, "Z": -1.5757, "Tot": 1.8474}, "functional": "B3LYP", "basis": "6-31+G*", "phase": "gas", "tag": "lis", "state": "successful", "wall_time (s)": 18.263176157022826, "version": "0.0.1", "gauss_version": "ES64L-G16RevC.01", "last_updated": "2021-09-14 21:24:56.529000", "polarizability": 82.47, "fluorinated-solvent": "85984292", "run_ids": ["6141125d29add726c772805c", "614112dcb8fae2c99a68343a"]}