{"_id": "614125a7640c3806938442fa", "molecule": {"@module": "pymatgen.core.structure", "@class": "Molecule", "charge": 0, "spin_multiplicity": 1, "sites": [{"name": "F", "species": [{"element": "F", "occu": 1}], "xyz": [2.28752, -2.579642, -1.956353], "properties": {}}, {"name": "F", "species": [{"element": "F", "occu": 1}], "xyz": [0.930948, -1.006726, -1.290874], "properties": {}}, {"name": "F", "species": [{"element": "F", "occu": 1}], "xyz": [4.120524, -0.840178, -2.814301], "properties": {}}, {"name": "F", "species": [{"element": "F", "occu": 1}], "xyz": [2.125024, -0.253987, -3.5501], "properties": {}}, {"name": "F", "species": [{"element": "F", "occu": 1}], "xyz": [3.66073, 1.865728, -2.863579], "properties": {}}, {"name": "F", "species": [{"element": "F", "occu": 1}], "xyz": [1.991613, 1.617479, -1.435014], "properties": {}}, {"name": "O", "species": [{"element": "O", "occu": 1}], "xyz": [2.929432, -1.222638, -0.269019], "properties": {}}, {"name": "C", "species": [{"element": "C", "occu": 1}], "xyz": [2.97307, -1.494232, 2.119249], "properties": {}}, {"name": "C", "species": [{"element": "C", "occu": 1}], "xyz": [2.512729, -2.116081, 0.810277], "properties": {}}, {"name": "C", "species": [{"element": "C", "occu": 1}], "xyz": [2.261152, -1.313657, -1.431712], "properties": {}}, {"name": "C", "species": [{"element": "C", "occu": 1}], "xyz": [2.90779, -0.332597, -2.448108], "properties": {}}, {"name": "C", "species": [{"element": "C", "occu": 1}], "xyz": [2.380822, -0.104576, 2.409396], "properties": {}}, {"name": "C", "species": [{"element": "C", "occu": 1}], "xyz": [3.164731, 1.076272, -1.87114], "properties": {}}, {"name": "C", "species": [{"element": "C", "occu": 1}], "xyz": [0.849581, -0.079341, 2.499395], "properties": {}}, {"name": "H", "species": [{"element": "H", "occu": 1}], "xyz": [2.695219, -2.193651, 2.920834], "properties": {}}, {"name": "H", "species": [{"element": "H", "occu": 1}], "xyz": [4.069476, -1.438325, 2.114668], "properties": {}}, {"name": "H", "species": [{"element": "H", "occu": 1}], "xyz": [1.426157, -2.228888, 0.771426], "properties": {}}, {"name": "H", "species": [{"element": "H", "occu": 1}], "xyz": [2.980321, -3.089434, 0.634495], "properties": {}}, {"name": "H", "species": [{"element": "H", "occu": 1}], "xyz": [2.808717, 0.25481, 3.354405], "properties": {}}, {"name": "H", "species": [{"element": "H", "occu": 1}], "xyz": [2.711921, 0.59691, 1.633289], "properties": {}}, {"name": "H", "species": [{"element": "H", "occu": 1}], "xyz": [3.877612, 1.04182, -1.044677], "properties": {}}, {"name": "H", "species": [{"element": "H", "occu": 1}], "xyz": [0.482666, -0.807497, 3.235047], "properties": {}}, {"name": "H", "species": [{"element": "H", "occu": 1}], "xyz": [0.494989, 0.911386, 2.805515], "properties": {}}, {"name": "H", "species": [{"element": "H", "occu": 1}], "xyz": [0.380796, -0.306344, 1.535029], "properties": {}}]}, "smiles": "FC(F)(OCCCC)C(F)(F)C(F)F", "inchi": "InChI=1S/C7H10F6O/c1-2-3-4-14-7(12,13)6(10,11)5(8)9/h5H,2-4H2,1H3", "formula_alphabetical": "C7 F6 H10 O1", "chemsys": "C-F-H-O", "energy": -947.083750717, "esp": {"1": ["F", -0.18561], "2": ["F", -0.198158], "3": ["F", -0.166718], "4": ["F", -0.1261], "5": ["F", -0.196874], "6": ["F", -0.191186], "7": ["O", -0.344703], "8": ["C", -0.221979], "9": ["C", 0.143358], "10": ["C", 0.458828], "11": ["C", 0.203606], "12": ["C", 0.26551], "13": ["C", 0.339898], "14": ["C", -0.312013], "15": ["H", 0.067993], "16": ["H", 0.067453], "17": ["H", 0.063688], "18": ["H", 0.068454], "19": ["H", -0.026353], "20": ["H", -0.048019], "21": ["H", 0.107413], "22": ["H", 0.068837], "23": ["H", 0.073628], "24": ["H", 0.089047]}, "dipole_moment": {"X": 0.8328, "Y": -1.0539, "Z": 4.2952, "Tot": 4.5003}, "functional": "B3LYP", "basis": "6-31+G*", "phase": "gas", "tag": "lis", "state": "successful", "wall_time (s)": 14.160084449104033, "version": "0.0.1", "gauss_version": "ES64L-G16RevC.01", "last_updated": "2021-09-14 22:43:50.850000", "polarizability": 91.2, "fluorinated-solvent": "91546631", "run_ids": ["61412586db979841260ffe8c", "614125a1c6afa67579c48197"]}