{"_id": "614128f98cf2795b9175e460", "molecule": {"@module": "pymatgen.core.structure", "@class": "Molecule", "charge": 0, "spin_multiplicity": 1, "sites": [{"name": "F", "species": [{"element": "F", "occu": 1}], "xyz": [1.391294, 3.669947, 0.95181], "properties": {}}, {"name": "F", "species": [{"element": "F", "occu": 1}], "xyz": [0.7551, 1.582438, 1.157205], "properties": {}}, {"name": "F", "species": [{"element": "F", "occu": 1}], "xyz": [3.486716, -0.096747, -4.406188], "properties": {}}, {"name": "F", "species": [{"element": "F", "occu": 1}], "xyz": [4.892327, -0.256054, -2.731826], "properties": {}}, {"name": "F", "species": [{"element": "F", "occu": 1}], "xyz": [3.81125, 3.045317, 2.257466], "properties": {}}, {"name": "F", "species": [{"element": "F", "occu": 1}], "xyz": [2.025072, -2.272537, -3.366861], "properties": {}}, {"name": "O", "species": [{"element": "O", "occu": 1}], "xyz": [2.584609, 2.060824, -0.081432], "properties": {}}, {"name": "O", "species": [{"element": "O", "occu": 1}], "xyz": [2.728354, 0.244326, -2.311091], "properties": {}}, {"name": "C", "species": [{"element": "C", "occu": 1}], "xyz": [1.933224, 2.276348, -1.352776], "properties": {}}, {"name": "C", "species": [{"element": "C", "occu": 1}], "xyz": [2.814654, 1.682052, -2.423111], "properties": {}}, {"name": "C", "species": [{"element": "C", "occu": 1}], "xyz": [1.881023, 2.382825, 1.022936], "properties": {}}, {"name": "C", "species": [{"element": "C", "occu": 1}], "xyz": [3.567606, -0.475738, -3.082782], "properties": {}}, {"name": "C", "species": [{"element": "C", "occu": 1}], "xyz": [2.712942, 2.197427, 2.284339], "properties": {}}, {"name": "C", "species": [{"element": "C", "occu": 1}], "xyz": [3.309869, -1.969212, -2.938838], "properties": {}}, {"name": "H", "species": [{"element": "H", "occu": 1}], "xyz": [0.949201, 1.797202, -1.352332], "properties": {}}, {"name": "H", "species": [{"element": "H", "occu": 1}], "xyz": [1.820435, 3.352234, -1.522584], "properties": {}}, {"name": "H", "species": [{"element": "H", "occu": 1}], "xyz": [2.454678, 1.989301, -3.410589], "properties": {}}, {"name": "H", "species": [{"element": "H", "occu": 1}], "xyz": [3.852552, 2.003584, -2.291704], "properties": {}}, {"name": "H", "species": [{"element": "H", "occu": 1}], "xyz": [2.09509, 2.443296, 3.151929], "properties": {}}, {"name": "H", "species": [{"element": "H", "occu": 1}], "xyz": [3.062558, 1.162775, 2.331813], "properties": {}}, {"name": "H", "species": [{"element": "H", "occu": 1}], "xyz": [4.028528, -2.511106, -3.559151], "properties": {}}, {"name": "H", "species": [{"element": "H", "occu": 1}], "xyz": [3.410227, -2.248442, -1.886723], "properties": {}}]}, "smiles": "FC(F)(OCCOC(F)(F)CF)CF", "inchi": "InChI=1S/C6H8F6O2/c7-3-5(9,10)13-1-2-14-6(11,12)4-8/h1-4H2", "formula_alphabetical": "C6 F6 H8 O2", "chemsys": "C-F-H-O", "energy": -982.995304096, "esp": {"1": ["F", -0.212547], "2": ["F", -0.253782], "3": ["F", -0.198672], "4": ["F", -0.242023], "5": ["F", -0.233642], "6": ["F", -0.227941], "7": ["O", -0.299571], "8": ["O", -0.262961], "9": ["C", 0.013234], "10": ["C", -0.045657], "11": ["C", 0.492375], "12": ["C", 0.446599], "13": ["C", 0.066103], "14": ["C", 0.04221], "15": ["H", 0.12977], "16": ["H", 0.100353], "17": ["H", 0.110534], "18": ["H", 0.144373], "19": ["H", 0.106457], "20": ["H", 0.0995], "21": ["H", 0.117344], "22": ["H", 0.107944]}, "dipole_moment": {"X": 0.1392, "Y": -0.4035, "Z": 0.3378, "Tot": 0.5443}, "functional": "B3LYP", "basis": "6-31+G*", "phase": "gas", "tag": "lis", "state": "successful", "wall_time (s)": 13.506926086964086, "version": "0.0.1", "gauss_version": "ES64L-G16RevC.01", "last_updated": "2021-09-14 22:58:01.628000", "polarizability": 84.43, "fluorinated-solvent": "87650467", "run_ids": ["614128d8e9a96f970aa8a449", "614128f21e0cfe3b5c3df39a"]}