{"_id": "6141126881c2c5ca22a2dc3f", "molecule": {"@module": "pymatgen.core.structure", "@class": "Molecule", "charge": 0, "spin_multiplicity": 1, "sites": [{"name": "F", "species": [{"element": "F", "occu": 1}], "xyz": [8.495144, 4.43146, 2.096876], "properties": {}}, {"name": "F", "species": [{"element": "F", "occu": 1}], "xyz": [8.725997, 4.498281, -0.073121], "properties": {}}, {"name": "F", "species": [{"element": "F", "occu": 1}], "xyz": [8.602489, 2.576193, 0.951081], "properties": {}}, {"name": "O", "species": [{"element": "O", "occu": 1}], "xyz": [3.400025, 4.481382, 1.618537], "properties": {}}, {"name": "C", "species": [{"element": "C", "occu": 1}], "xyz": [1.427769, 5.22861, 2.754274], "properties": {}}, {"name": "C", "species": [{"element": "C", "occu": 1}], "xyz": [1.975163, 4.525016, 1.519547], "properties": {}}, {"name": "C", "species": [{"element": "C", "occu": 1}], "xyz": [1.882568, 6.688023, 2.866553], "properties": {}}, {"name": "C", "species": [{"element": "C", "occu": 1}], "xyz": [4.007104, 3.869074, 0.496849], "properties": {}}, {"name": "C", "species": [{"element": "C", "occu": 1}], "xyz": [5.45955, 3.866062, 0.669291], "properties": {}}, {"name": "C", "species": [{"element": "C", "occu": 1}], "xyz": [6.660234, 3.853019, 0.789476], "properties": {}}, {"name": "C", "species": [{"element": "C", "occu": 1}], "xyz": [8.109593, 3.840217, 0.940768], "properties": {}}, {"name": "H", "species": [{"element": "H", "occu": 1}], "xyz": [0.331195, 5.173717, 2.711423], "properties": {}}, {"name": "H", "species": [{"element": "H", "occu": 1}], "xyz": [1.741114, 4.66473, 3.642365], "properties": {}}, {"name": "H", "species": [{"element": "H", "occu": 1}], "xyz": [1.684793, 5.068879, 0.603484], "properties": {}}, {"name": "H", "species": [{"element": "H", "occu": 1}], "xyz": [1.577838, 3.498809, 1.445167], "properties": {}}, {"name": "H", "species": [{"element": "H", "occu": 1}], "xyz": [1.555594, 7.269936, 1.994735], "properties": {}}, {"name": "H", "species": [{"element": "H", "occu": 1}], "xyz": [1.463818, 7.161402, 3.762056], "properties": {}}, {"name": "H", "species": [{"element": "H", "occu": 1}], "xyz": [2.973845, 6.750945, 2.924077], "properties": {}}, {"name": "H", "species": [{"element": "H", "occu": 1}], "xyz": [3.754973, 4.40944, -0.432198], "properties": {}}, {"name": "H", "species": [{"element": "H", "occu": 1}], "xyz": [3.655433, 2.829617, 0.375291], "properties": {}}]}, "smiles": "FC(F)(F)C#CCOCCC", "inchi": "InChI=1S/C7H9F3O/c1-2-5-11-6-3-4-7(8,9)10/h2,5-6H2,1H3", "formula_alphabetical": "C7 F3 H9 O1", "chemsys": "C-F-H-O", "energy": -646.863895778, "esp": {"1": ["F", -0.218456], "2": ["F", -0.228773], "3": ["F", -0.229999], "4": ["O", -0.325273], "5": ["C", 0.125241], "6": ["C", 0.060444], "7": ["C", -0.190956], "8": ["C", 0.188774], "9": ["C", -0.011633], "10": ["C", -0.249275], "11": ["C", 0.767781], "12": ["H", -0.013881], "13": ["H", 0.004909], "14": ["H", 0.030208], "15": ["H", 0.023209], "16": ["H", 0.052542], "17": ["H", 0.048264], "18": ["H", 0.047904], "19": ["H", 0.060202], "20": ["H", 0.058767]}, "dipole_moment": {"X": -4.3234, "Y": -0.2638, "Z": -1.0586, "Tot": 4.4589}, "functional": "B3LYP", "basis": "6-31+G*", "phase": "gas", "tag": "lis", "state": "successful", "wall_time (s)": 10.746719525079243, "version": "0.0.1", "gauss_version": "ES64L-G16RevC.01", "last_updated": "2021-09-14 21:21:44.237000", "polarizability": 89.83, "fluorinated-solvent": "91185590", "run_ids": ["6141119de47277d39e17f210", "6141120b40ca2abaa92f5d4d"]}