{"_id": "613a4f41f3ebe101578b7bd7", "molecule": {"@module": "pymatgen.core.structure", "@class": "Molecule", "charge": 0, "spin_multiplicity": 1, "sites": [{"name": "F", "species": [{"element": "F", "occu": 1}], "xyz": [0.376507, -6.495812, -1.149475], "properties": {}}, {"name": "F", "species": [{"element": "F", "occu": 1}], "xyz": [2.370321, -6.43687, -0.263042], "properties": {}}, {"name": "F", "species": [{"element": "F", "occu": 1}], "xyz": [2.141244, -6.441502, -2.434863], "properties": {}}, {"name": "O", "species": [{"element": "O", "occu": 1}], "xyz": [1.031039, -2.446259, -0.160953], "properties": {}}, {"name": "C", "species": [{"element": "C", "occu": 1}], "xyz": [1.048073, -1.758078, 2.250566], "properties": {}}, {"name": "C", "species": [{"element": "C", "occu": 1}], "xyz": [0.372032, -1.715204, 0.87483], "properties": {}}, {"name": "C", "species": [{"element": "C", "occu": 1}], "xyz": [2.470942, -1.175201, 2.304475], "properties": {}}, {"name": "C", "species": [{"element": "C", "occu": 1}], "xyz": [0.985006, -3.854513, -0.013702], "properties": {}}, {"name": "C", "species": [{"element": "C", "occu": 1}], "xyz": [1.574927, -4.441062, -1.294424], "properties": {}}, {"name": "C", "species": [{"element": "C", "occu": 1}], "xyz": [3.554365, -2.066154, 1.6802], "properties": {}}, {"name": "C", "species": [{"element": "C", "occu": 1}], "xyz": [1.615411, -5.950241, -1.284745], "properties": {}}, {"name": "H", "species": [{"element": "H", "occu": 1}], "xyz": [0.396311, -1.183072, 2.924648], "properties": {}}, {"name": "H", "species": [{"element": "H", "occu": 1}], "xyz": [1.050592, -2.785042, 2.643039], "properties": {}}, {"name": "H", "species": [{"element": "H", "occu": 1}], "xyz": [0.347771, -0.683053, 0.507787], "properties": {}}, {"name": "H", "species": [{"element": "H", "occu": 1}], "xyz": [-0.66995, -2.06818, 0.960927], "properties": {}}, {"name": "H", "species": [{"element": "H", "occu": 1}], "xyz": [2.473542, -0.192198, 1.810706], "properties": {}}, {"name": "H", "species": [{"element": "H", "occu": 1}], "xyz": [2.727933, -0.98945, 3.356478], "properties": {}}, {"name": "H", "species": [{"element": "H", "occu": 1}], "xyz": [-0.053491, -4.194666, 0.125419], "properties": {}}, {"name": "H", "species": [{"element": "H", "occu": 1}], "xyz": [1.570858, -4.184548, 0.855147], "properties": {}}, {"name": "H", "species": [{"element": "H", "occu": 1}], "xyz": [2.599192, -4.081075, -1.431324], "properties": {}}, {"name": "H", "species": [{"element": "H", "occu": 1}], "xyz": [0.985209, -4.12555, -2.160211], "properties": {}}, {"name": "H", "species": [{"element": "H", "occu": 1}], "xyz": [3.380607, -2.208953, 0.609875], "properties": {}}, {"name": "H", "species": [{"element": "H", "occu": 1}], "xyz": [4.548615, -1.62183, 1.810254], "properties": {}}, {"name": "H", "species": [{"element": "H", "occu": 1}], "xyz": [3.569866, -3.055195, 2.157491], "properties": {}}]}, "smiles": "FC(F)(F)CCOCCCC", "inchi": "InChI=1S/C7H13F3O/c1-2-3-5-11-6-4-7(8,9)10/h2-6H2,1H3", "formula_alphabetical": "C7 F3 H13 O1", "chemsys": "C-F-H-O", "energy": -649.359306345, "esp": {"1": ["F", -0.241065], "2": ["F", -0.234976], "3": ["F", -0.236107], "4": ["O", -0.433539], "5": ["C", -0.120232], "6": ["C", 0.103092], "7": ["C", 0.21636], "8": ["C", 0.288839], "9": ["C", -0.414001], "10": ["C", -0.212824], "11": ["C", 0.699507], "12": ["H", 0.020615], "13": ["H", 0.037177], "14": ["H", 0.067954], "15": ["H", 0.026641], "16": ["H", -0.028593], "17": ["H", -0.039899], "18": ["H", 0.033143], "19": ["H", 0.000458], "20": ["H", 0.153352], "21": ["H", 0.155281], "22": ["H", 0.067961], "23": ["H", 0.031967], "24": ["H", 0.058889]}, "dipole_moment": {"X": -0.6619, "Y": 2.2124, "Z": 1.3834, "Tot": 2.6919}, "functional": "B3LYP", "basis": "6-31+G*", "phase": "gas", "tag": "lis", "state": "successful", "wall_time (s)": 10.630651460960507, "version": "0.0.1", "gauss_version": "ES64L-G16RevC.01", "last_updated": "2021-09-09 18:15:29.625000", "polarizability": 89.37, "fluorinated-solvent": "53881431", "run_ids": ["613a4a66b8393e46c93ed1a2", "613a4f3db0ad5765a2c1dfb2"]}