{"_id": "613a54ef79be88e5eb37bb91", "molecule": {"@module": "pymatgen.core.structure", "@class": "Molecule", "charge": 0, "spin_multiplicity": 1, "sites": [{"name": "F", "species": [{"element": "F", "occu": 1}], "xyz": [2.853683, -0.458805, 1.372505], "properties": {}}, {"name": "F", "species": [{"element": "F", "occu": 1}], "xyz": [3.187211, 1.171042, -0.083181], "properties": {}}, {"name": "F", "species": [{"element": "F", "occu": 1}], "xyz": [0.256502, -0.750727, 0.350363], "properties": {}}, {"name": "F", "species": [{"element": "F", "occu": 1}], "xyz": [0.744271, 1.237716, 1.193137], "properties": {}}, {"name": "O", "species": [{"element": "O", "occu": 1}], "xyz": [2.358406, -0.595679, -2.145393], "properties": {}}, {"name": "C", "species": [{"element": "C", "occu": 1}], "xyz": [2.485838, 0.013524, 0.14096], "properties": {}}, {"name": "C", "species": [{"element": "C", "occu": 1}], "xyz": [2.850001, -1.034728, -0.899131], "properties": {}}, {"name": "C", "species": [{"element": "C", "occu": 1}], "xyz": [0.994042, 0.388919, 0.157399], "properties": {}}, {"name": "C", "species": [{"element": "C", "occu": 1}], "xyz": [2.640235, -1.499722, -3.205552], "properties": {}}, {"name": "H", "species": [{"element": "H", "occu": 1}], "xyz": [3.945994, -1.137843, -0.899974], "properties": {}}, {"name": "H", "species": [{"element": "H", "occu": 1}], "xyz": [2.399485, -1.991849, -0.598131], "properties": {}}, {"name": "H", "species": [{"element": "H", "occu": 1}], "xyz": [0.688398, 0.857539, -0.779946], "properties": {}}, {"name": "H", "species": [{"element": "H", "occu": 1}], "xyz": [3.725166, -1.629661, -3.336228], "properties": {}}, {"name": "H", "species": [{"element": "H", "occu": 1}], "xyz": [2.177897, -2.481718, -3.023301], "properties": {}}, {"name": "H", "species": [{"element": "H", "occu": 1}], "xyz": [2.21662, -1.061929, -4.111845], "properties": {}}]}, "smiles": "FC(F)(COC)C(F)F", "inchi": "InChI=1S/C4H6F4O/c1-9-2-4(7,8)3(5)6/h3H,2H2,1H3", "formula_alphabetical": "C4 F4 H6 O1", "chemsys": "C-F-H-O", "energy": -630.641019301, "esp": {"1": ["F", -0.18918], "2": ["F", -0.193539], "3": ["F", -0.219136], "4": ["F", -0.214225], "5": ["O", -0.288649], "6": ["C", 0.298102], "7": ["C", -0.135544], "8": ["C", 0.399292], "9": ["C", -0.072831], "10": ["H", 0.157274], "11": ["H", 0.124443], "12": ["H", 0.07575], "13": ["H", 0.076379], "14": ["H", 0.078753], "15": ["H", 0.103109]}, "dipole_moment": {"X": 0.7618, "Y": -2.095, "Z": -3.2866, "Tot": 3.9713}, "functional": "B3LYP", "basis": "6-31+G*", "phase": "gas", "tag": "lis", "state": "successful", "wall_time (s)": 7.228008019039407, "version": "0.0.1", "gauss_version": "ES64L-G16RevC.01", "last_updated": "2021-09-09 18:39:42.947000", "polarizability": 55.72, "fluorinated-solvent": "2783340", "run_ids": ["613a4ad87f17c2b14d0b99ae", "613a54d9247619a4693b32e6"]}