{"_id": "613a4d915e123400e6aed9c3", "molecule": {"@module": "pymatgen.core.structure", "@class": "Molecule", "charge": 0, "spin_multiplicity": 1, "sites": [{"name": "F", "species": [{"element": "F", "occu": 1}], "xyz": [3.071123, 3.26107, 1.195585], "properties": {}}, {"name": "F", "species": [{"element": "F", "occu": 1}], "xyz": [1.136238, 2.27753, 1.464636], "properties": {}}, {"name": "F", "species": [{"element": "F", "occu": 1}], "xyz": [2.143187, 2.22213, -0.47444], "properties": {}}, {"name": "F", "species": [{"element": "F", "occu": 1}], "xyz": [5.276777, -3.29969, 0.701152], "properties": {}}, {"name": "F", "species": [{"element": "F", "occu": 1}], "xyz": [3.636739, -3.107971, 2.116427], "properties": {}}, {"name": "F", "species": [{"element": "F", "occu": 1}], "xyz": [3.219601, -3.627598, 0.034833], "properties": {}}, {"name": "O", "species": [{"element": "O", "occu": 1}], "xyz": [2.901894, 1.019225, 1.269216], "properties": {}}, {"name": "O", "species": [{"element": "O", "occu": 1}], "xyz": [3.837587, -1.586314, 0.471058], "properties": {}}, {"name": "C", "species": [{"element": "C", "occu": 1}], "xyz": [4.219847, 0.749855, 0.741675], "properties": {}}, {"name": "C", "species": [{"element": "C", "occu": 1}], "xyz": [4.624376, -0.625949, 1.210346], "properties": {}}, {"name": "C", "species": [{"element": "C", "occu": 1}], "xyz": [2.327769, 2.166826, 0.870512], "properties": {}}, {"name": "C", "species": [{"element": "C", "occu": 1}], "xyz": [3.988865, -2.873639, 0.825257], "properties": {}}, {"name": "H", "species": [{"element": "H", "occu": 1}], "xyz": [4.19779, 0.795402, -0.351593], "properties": {}}, {"name": "H", "species": [{"element": "H", "occu": 1}], "xyz": [4.924521, 1.492585, 1.131376], "properties": {}}, {"name": "H", "species": [{"element": "H", "occu": 1}], "xyz": [5.686813, -0.788481, 0.998471], "properties": {}}, {"name": "H", "species": [{"element": "H", "occu": 1}], "xyz": [4.43689, -0.740303, 2.282527], "properties": {}}]}, "smiles": "FC(F)(F)OCCOC(F)(F)F", "inchi": "InChI=1S/C4H4F6O2/c5-3(6,7)11-1-2-12-4(8,9)10/h1-2H2", "formula_alphabetical": "C4 F6 H4 O2", "chemsys": "C-F-H-O", "energy": -904.388561533, "esp": {"1": ["F", -0.210251], "2": ["F", -0.173384], "3": ["F", -0.201666], "4": ["F", -0.213559], "5": ["F", -0.201878], "6": ["F", -0.177663], "7": ["O", -0.334474], "8": ["O", -0.333846], "9": ["C", 0.106871], "10": ["C", 0.056055], "11": ["C", 0.663906], "12": ["C", 0.679083], "13": ["H", 0.090951], "14": ["H", 0.069139], "15": ["H", 0.082484], "16": ["H", 0.098232]}, "dipole_moment": {"X": 3.01, "Y": 0.989, "Z": 0.3044, "Tot": 3.1829}, "functional": "B3LYP", "basis": "6-31+G*", "phase": "gas", "tag": "lis", "state": "successful", "wall_time (s)": 8.328654016018845, "version": "0.0.1", "gauss_version": "ES64L-G16RevC.01", "last_updated": "2021-09-09 18:08:16.710000", "polarizability": 61.77, "fluorinated-solvent": "23233642", "run_ids": ["613a4a0031f32d1644a778d1", "613a4d8307d69f6898b95b06"]}