{"_id": "61410c2d5411a30768cb92f5", "molecule": {"@module": "pymatgen.core.structure", "@class": "Molecule", "charge": 0, "spin_multiplicity": 1, "sites": [{"name": "F", "species": [{"element": "F", "occu": 1}], "xyz": [3.349928, -0.401901, -1.108809], "properties": {}}, {"name": "F", "species": [{"element": "F", "occu": 1}], "xyz": [3.191144, -0.873661, 1.046014], "properties": {}}, {"name": "O", "species": [{"element": "O", "occu": 1}], "xyz": [2.463561, 1.91607, 1.444066], "properties": {}}, {"name": "C", "species": [{"element": "C", "occu": 1}], "xyz": [2.720796, -0.012293, 0.069477], "properties": {}}, {"name": "C", "species": [{"element": "C", "occu": 1}], "xyz": [3.217104, 1.396161, 0.372637], "properties": {}}, {"name": "C", "species": [{"element": "C", "occu": 1}], "xyz": [1.221822, -0.201072, -0.058996], "properties": {}}, {"name": "C", "species": [{"element": "C", "occu": 1}], "xyz": [2.865069, 3.224609, 1.84101], "properties": {}}, {"name": "C", "species": [{"element": "C", "occu": 1}], "xyz": [1.929842, 3.704998, 2.943066], "properties": {}}, {"name": "C", "species": [{"element": "C", "occu": 1}], "xyz": [0.576984, 0.701454, -1.115987], "properties": {}}, {"name": "C", "species": [{"element": "C", "occu": 1}], "xyz": [0.473862, 3.831087, 2.480413], "properties": {}}, {"name": "H", "species": [{"element": "H", "occu": 1}], "xyz": [4.288928, 1.335454, 0.615352], "properties": {}}, {"name": "H", "species": [{"element": "H", "occu": 1}], "xyz": [3.098429, 2.010549, -0.533186], "properties": {}}, {"name": "H", "species": [{"element": "H", "occu": 1}], "xyz": [1.0608, -1.259301, -0.294743], "properties": {}}, {"name": "H", "species": [{"element": "H", "occu": 1}], "xyz": [0.791208, -0.006842, 0.928081], "properties": {}}, {"name": "H", "species": [{"element": "H", "occu": 1}], "xyz": [3.908982, 3.200109, 2.194674], "properties": {}}, {"name": "H", "species": [{"element": "H", "occu": 1}], "xyz": [2.818523, 3.904867, 0.972052], "properties": {}}, {"name": "H", "species": [{"element": "H", "occu": 1}], "xyz": [1.999353, 3.006137, 3.786701], "properties": {}}, {"name": "H", "species": [{"element": "H", "occu": 1}], "xyz": [2.300266, 4.675633, 3.300466], "properties": {}}, {"name": "H", "species": [{"element": "H", "occu": 1}], "xyz": [1.044258, 0.562393, -2.097025], "properties": {}}, {"name": "H", "species": [{"element": "H", "occu": 1}], "xyz": [-0.488097, 0.465194, -1.212788], "properties": {}}, {"name": "H", "species": [{"element": "H", "occu": 1}], "xyz": [0.658413, 1.757859, -0.836825], "properties": {}}, {"name": "H", "species": [{"element": "H", "occu": 1}], "xyz": [0.091077, 2.864359, 2.13736], "properties": {}}, {"name": "H", "species": [{"element": "H", "occu": 1}], "xyz": [-0.169496, 4.184493, 3.294493], "properties": {}}, {"name": "H", "species": [{"element": "H", "occu": 1}], "xyz": [0.385636, 4.543164, 1.649147], "properties": {}}]}, "smiles": "FC(F)(COCCC)CC", "inchi": "InChI=1S/C7H14F2O/c1-3-5-10-6-7(8,9)4-2/h3-6H2,1-2H3", "formula_alphabetical": "C7 F2 H14 O1", "chemsys": "C-F-H-O", "energy": -550.11354211, "esp": {"1": ["F", -0.251739], "2": ["F", -0.257177], "3": ["O", -0.251097], "4": ["C", 0.381008], "5": ["C", -0.11997], "6": ["C", 0.123594], "7": ["C", -0.003155], "8": ["C", 0.147057], "9": ["C", -0.279641], "10": ["C", -0.237454], "11": ["H", 0.134305], "12": ["H", 0.084479], "13": ["H", 0.034448], "14": ["H", -0.00196], "15": ["H", 0.039292], "16": ["H", 0.057331], "17": ["H", -0.000732], "18": ["H", -0.012264], "19": ["H", 0.075745], "20": ["H", 0.073401], "21": ["H", 0.083487], "22": ["H", 0.070023], "23": ["H", 0.055804], "24": ["H", 0.055215]}, "dipole_moment": {"X": -0.9912, "Y": 2.7354, "Z": 0.0727, "Tot": 2.9104}, "functional": "B3LYP", "basis": "6-31+G*", "phase": "gas", "tag": "lis", "state": "successful", "wall_time (s)": 9.815815960988402, "version": "0.0.1", "gauss_version": "ES64L-G16RevC.01", "last_updated": "2021-09-14 20:55:09.093000", "polarizability": 88.72, "fluorinated-solvent": "122625867", "run_ids": ["61410b2d0ae69baf871ba8fe", "61410bdc98f5479917fc780f"]}