{"_id": "614122abb5cd8ae51878e427", "molecule": {"@module": "pymatgen.core.structure", "@class": "Molecule", "charge": 0, "spin_multiplicity": 1, "sites": [{"name": "F", "species": [{"element": "F", "occu": 1}], "xyz": [0.656781, -0.08109, -0.167312], "properties": {}}, {"name": "F", "species": [{"element": "F", "occu": 1}], "xyz": [2.175706, 0.730389, 1.168393], "properties": {}}, {"name": "F", "species": [{"element": "F", "occu": 1}], "xyz": [1.873162, 2.135909, -1.15888], "properties": {}}, {"name": "F", "species": [{"element": "F", "occu": 1}], "xyz": [1.355101, -2.138269, 1.513407], "properties": {}}, {"name": "F", "species": [{"element": "F", "occu": 1}], "xyz": [3.029462, -3.178224, 0.579425], "properties": {}}, {"name": "F", "species": [{"element": "F", "occu": 1}], "xyz": [3.395636, -1.59668, 2.025365], "properties": {}}, {"name": "F", "species": [{"element": "F", "occu": 1}], "xyz": [4.145306, 2.699689, 0.221141], "properties": {}}, {"name": "F", "species": [{"element": "F", "occu": 1}], "xyz": [4.898046, 0.706338, 0.653478], "properties": {}}, {"name": "F", "species": [{"element": "F", "occu": 1}], "xyz": [5.842139, 1.906057, -0.8941], "properties": {}}, {"name": "O", "species": [{"element": "O", "occu": 1}], "xyz": [2.649839, -1.129986, -0.045997], "properties": {}}, {"name": "O", "species": [{"element": "O", "occu": 1}], "xyz": [3.887176, 1.066107, -1.327628], "properties": {}}, {"name": "C", "species": [{"element": "C", "occu": 1}], "xyz": [1.994862, 0.089584, -0.005955], "properties": {}}, {"name": "C", "species": [{"element": "C", "occu": 1}], "xyz": [2.500898, 0.919964, -1.21504], "properties": {}}, {"name": "C", "species": [{"element": "C", "occu": 1}], "xyz": [2.597883, -1.998497, 1.027906], "properties": {}}, {"name": "C", "species": [{"element": "C", "occu": 1}], "xyz": [4.671214, 1.596181, -0.33149], "properties": {}}, {"name": "H", "species": [{"element": "H", "occu": 1}], "xyz": [2.20342, 0.405627, -2.130362], "properties": {}}]}, "smiles": "FC(F)(OC(F)(F)F)[C@@H](F)OC(F)(F)F", "inchi": "InChI=1S/C4HF9O2/c5-1(14-3(8,9)10)2(6,7)15-4(11,12)13/h1H/t1-/m0/s1", "formula_alphabetical": "C4 F9 H1 O2", "chemsys": "C-F-H-O", "energy": -1202.10695644, "esp": {"1": ["F", -0.155099], "2": ["F", -0.117283], "3": ["F", -0.196075], "4": ["F", -0.17131], "5": ["F", -0.177183], "6": ["F", -0.173279], "7": ["F", -0.160034], "8": ["F", -0.176833], "9": ["F", -0.165585], "10": ["O", -0.334059], "11": ["O", -0.347102], "12": ["C", 0.33037], "13": ["C", 0.328534], "14": ["C", 0.719506], "15": ["C", 0.657958], "16": ["H", 0.137475]}, "dipole_moment": {"X": -0.4072, "Y": -0.7298, "Z": -1.4268, "Tot": 1.6535}, "functional": "B3LYP", "basis": "6-31+G*", "phase": "gas", "tag": "lis", "state": "successful", "wall_time (s)": 11.984242570935749, "version": "0.0.1", "gauss_version": "ES64L-G16RevC.01", "last_updated": "2021-09-14 22:31:06.838000", "polarizability": 63.9, "fluorinated-solvent": "73056490", "run_ids": ["6141228afa0585982c3d0bbf", "614122a31c64eba87727a601"]}