{"_id": "6141190d779fb5e93db43992", "molecule": {"@module": "pymatgen.core.structure", "@class": "Molecule", "charge": 0, "spin_multiplicity": 1, "sites": [{"name": "F", "species": [{"element": "F", "occu": 1}], "xyz": [1.539203, 0.90984, -0.88677], "properties": {}}, {"name": "F", "species": [{"element": "F", "occu": 1}], "xyz": [0.39291, 0.092118, 0.800513], "properties": {}}, {"name": "F", "species": [{"element": "F", "occu": 1}], "xyz": [3.605727, -2.803448, 0.76618], "properties": {}}, {"name": "F", "species": [{"element": "F", "occu": 1}], "xyz": [2.183299, -4.499054, 0.822591], "properties": {}}, {"name": "F", "species": [{"element": "F", "occu": 1}], "xyz": [2.550277, 2.635842, 1.062473], "properties": {}}, {"name": "F", "species": [{"element": "F", "occu": 1}], "xyz": [1.722064, 1.537428, 2.755037], "properties": {}}, {"name": "F", "species": [{"element": "F", "occu": 1}], "xyz": [3.883573, 1.690921, 2.508845], "properties": {}}, {"name": "F", "species": [{"element": "F", "occu": 1}], "xyz": [3.930556, -4.654871, -1.247995], "properties": {}}, {"name": "F", "species": [{"element": "F", "occu": 1}], "xyz": [1.865771, -4.254121, -1.943141], "properties": {}}, {"name": "O", "species": [{"element": "O", "occu": 1}], "xyz": [1.639019, -1.231907, -0.529545], "properties": {}}, {"name": "C", "species": [{"element": "C", "occu": 1}], "xyz": [1.57582, -0.009436, 0.107958], "properties": {}}, {"name": "C", "species": [{"element": "C", "occu": 1}], "xyz": [1.330888, -2.405048, 0.22893], "properties": {}}, {"name": "C", "species": [{"element": "C", "occu": 1}], "xyz": [2.763841, 0.252015, 1.033019], "properties": {}}, {"name": "C", "species": [{"element": "C", "occu": 1}], "xyz": [2.512388, -3.362765, 0.143589], "properties": {}}, {"name": "C", "species": [{"element": "C", "occu": 1}], "xyz": [2.712841, 1.542495, 1.836003], "properties": {}}, {"name": "C", "species": [{"element": "C", "occu": 1}], "xyz": [2.9436, -3.720686, -1.289907], "properties": {}}, {"name": "H", "species": [{"element": "H", "occu": 1}], "xyz": [1.140072, -2.186227, 1.283048], "properties": {}}, {"name": "H", "species": [{"element": "H", "occu": 1}], "xyz": [0.446061, -2.878697, -0.202293], "properties": {}}, {"name": "H", "species": [{"element": "H", "occu": 1}], "xyz": [2.861748, -0.57089, 1.743611], "properties": {}}, {"name": "H", "species": [{"element": "H", "occu": 1}], "xyz": [3.663467, 0.270842, 0.41398], "properties": {}}, {"name": "H", "species": [{"element": "H", "occu": 1}], "xyz": [3.295203, -2.843204, -1.837734], "properties": {}}]}, "smiles": "FC(F)(OCC(F)(F)C(F)F)CC(F)(F)F", "inchi": "InChI=1S/C6H5F9O/c7-3(8)4(9,10)2-16-6(14,15)1-5(11,12)13/h3H,1-2H2", "formula_alphabetical": "C6 F9 H5 O1", "chemsys": "C-F-H-O", "energy": -1205.51522298, "esp": {"1": ["F", -0.240061], "2": ["F", -0.245811], "3": ["F", -0.218472], "4": ["F", -0.186231], "5": ["F", -0.195538], "6": ["F", -0.212715], "7": ["F", -0.219179], "8": ["F", -0.214666], "9": ["F", -0.222797], "10": ["O", -0.420012], "11": ["C", 0.826753], "12": ["C", -0.059881], "13": ["C", -0.655831], "14": ["C", 0.324801], "15": ["C", 0.688954], "16": ["C", 0.419757], "17": ["H", 0.133558], "18": ["H", 0.141952], "19": ["H", 0.245664], "20": ["H", 0.229053], "21": ["H", 0.080703]}, "dipole_moment": {"X": 0.158, "Y": -0.8029, "Z": -0.18, "Tot": 0.8379}, "functional": "B3LYP", "basis": "6-31+G*", "phase": "gas", "tag": "lis", "state": "successful", "wall_time (s)": 14.634073343942873, "version": "0.0.1", "gauss_version": "ES64L-G16RevC.01", "last_updated": "2021-09-14 21:50:05.564000", "polarizability": 81.41, "fluorinated-solvent": "58239532", "run_ids": ["614118e1ad97170546dd0900", "614119020d2c85072b9ae56c"]}