{"_id": "61412ace86aa601c4cec5b41", "molecule": {"@module": "pymatgen.core.structure", "@class": "Molecule", "charge": 0, "spin_multiplicity": 1, "sites": [{"name": "F", "species": [{"element": "F", "occu": 1}], "xyz": [4.714351, 0.70303, 1.154376], "properties": {}}, {"name": "F", "species": [{"element": "F", "occu": 1}], "xyz": [4.732396, 0.45399, -1.04575], "properties": {}}, {"name": "F", "species": [{"element": "F", "occu": 1}], "xyz": [1.007457, 4.264703, 2.127761], "properties": {}}, {"name": "F", "species": [{"element": "F", "occu": 1}], "xyz": [-0.899229, 3.139322, 2.159166], "properties": {}}, {"name": "F", "species": [{"element": "F", "occu": 1}], "xyz": [4.461051, 3.257771, -1.295346], "properties": {}}, {"name": "F", "species": [{"element": "F", "occu": 1}], "xyz": [0.414356, 1.091725, 3.601723], "properties": {}}, {"name": "O", "species": [{"element": "O", "occu": 1}], "xyz": [2.265519, 2.050853, 0.956867], "properties": {}}, {"name": "C", "species": [{"element": "C", "occu": 1}], "xyz": [2.751383, 1.224298, -0.082613], "properties": {}}, {"name": "C", "species": [{"element": "C", "occu": 1}], "xyz": [0.860361, 2.209106, 0.941063], "properties": {}}, {"name": "C", "species": [{"element": "C", "occu": 1}], "xyz": [4.270222, 1.256619, -0.027126], "properties": {}}, {"name": "C", "species": [{"element": "C", "occu": 1}], "xyz": [0.469937, 2.996689, 2.181332], "properties": {}}, {"name": "C", "species": [{"element": "C", "occu": 1}], "xyz": [4.906152, 2.635499, -0.128423], "properties": {}}, {"name": "C", "species": [{"element": "C", "occu": 1}], "xyz": [0.904075, 2.395123, 3.510108], "properties": {}}, {"name": "H", "species": [{"element": "H", "occu": 1}], "xyz": [2.437638, 1.591951, -1.069229], "properties": {}}, {"name": "H", "species": [{"element": "H", "occu": 1}], "xyz": [2.422073, 0.182711, 0.041223], "properties": {}}, {"name": "H", "species": [{"element": "H", "occu": 1}], "xyz": [0.526074, 2.768551, 0.055649], "properties": {}}, {"name": "H", "species": [{"element": "H", "occu": 1}], "xyz": [0.345624, 1.239158, 0.976326], "properties": {}}, {"name": "H", "species": [{"element": "H", "occu": 1}], "xyz": [4.602915, 3.241723, 0.728084], "properties": {}}, {"name": "H", "species": [{"element": "H", "occu": 1}], "xyz": [5.993579, 2.530424, -0.177144], "properties": {}}, {"name": "H", "species": [{"element": "H", "occu": 1}], "xyz": [1.994824, 2.362495, 3.557644], "properties": {}}, {"name": "H", "species": [{"element": "H", "occu": 1}], "xyz": [0.487125, 2.987278, 4.32951], "properties": {}}]}, "smiles": "FC(F)(COCC(F)(F)CF)CF", "inchi": "InChI=1S/C6H8F6O/c7-1-5(9,10)3-13-4-6(11,12)2-8/h1-4H2", "formula_alphabetical": "C6 F6 H8 O1", "chemsys": "C-F-H-O", "energy": -907.758667354, "esp": {"1": ["F", -0.233504], "2": ["F", -0.226388], "3": ["F", -0.243676], "4": ["F", -0.234655], "5": ["F", -0.240746], "6": ["F", -0.240906], "7": ["O", -0.193753], "8": ["C", -0.091045], "9": ["C", -0.118106], "10": ["C", 0.388061], "11": ["C", 0.430612], "12": ["C", 0.10408], "13": ["C", 0.091208], "14": ["H", 0.099078], "15": ["H", 0.133421], "16": ["H", 0.137007], "17": ["H", 0.104069], "18": ["H", 0.061215], "19": ["H", 0.10453], "20": ["H", 0.066213], "21": ["H", 0.103286]}, "dipole_moment": {"X": 0.2387, "Y": 0.1752, "Z": 0.275, "Tot": 0.4041}, "functional": "B3LYP", "basis": "6-31+G*", "phase": "gas", "tag": "lis", "state": "successful", "wall_time (s)": 10.63176819193177, "version": "0.0.1", "gauss_version": "ES64L-G16RevC.01", "last_updated": "2021-09-14 23:05:50.241000", "polarizability": 79.23, "fluorinated-solvent": "56995606", "run_ids": ["61412ab8e4978f5dbf19ccaa", "61412aca0c73164c7f396aa8"]}