{"_id": "6141126af95852e7358e65c2", "molecule": {"@module": "pymatgen.core.structure", "@class": "Molecule", "charge": 0, "spin_multiplicity": 1, "sites": [{"name": "F", "species": [{"element": "F", "occu": 1}], "xyz": [1.271569, -0.278342, 0.052872], "properties": {}}, {"name": "F", "species": [{"element": "F", "occu": 1}], "xyz": [3.214558, -1.327068, 0.162669], "properties": {}}, {"name": "F", "species": [{"element": "F", "occu": 1}], "xyz": [2.757281, 0.294866, 2.297582], "properties": {}}, {"name": "F", "species": [{"element": "F", "occu": 1}], "xyz": [4.395203, 1.056946, 1.016908], "properties": {}}, {"name": "F", "species": [{"element": "F", "occu": 1}], "xyz": [2.94756, 4.501389, -1.957686], "properties": {}}, {"name": "O", "species": [{"element": "O", "occu": 1}], "xyz": [2.466875, 1.671304, -1.59077], "properties": {}}, {"name": "C", "species": [{"element": "C", "occu": 1}], "xyz": [2.629142, -0.106092, -0.038339], "properties": {}}, {"name": "C", "species": [{"element": "C", "occu": 1}], "xyz": [3.005729, 0.377344, -1.430461], "properties": {}}, {"name": "C", "species": [{"element": "C", "occu": 1}], "xyz": [3.041381, 0.856327, 1.089536], "properties": {}}, {"name": "C", "species": [{"element": "C", "occu": 1}], "xyz": [2.800524, 2.281246, -2.828956], "properties": {}}, {"name": "C", "species": [{"element": "C", "occu": 1}], "xyz": [2.235361, 3.682548, -2.844785], "properties": {}}, {"name": "H", "species": [{"element": "H", "occu": 1}], "xyz": [4.101931, 0.380328, -1.510873], "properties": {}}, {"name": "H", "species": [{"element": "H", "occu": 1}], "xyz": [2.59144, -0.336355, -2.158659], "properties": {}}, {"name": "H", "species": [{"element": "H", "occu": 1}], "xyz": [2.532654, 1.818537, 1.004333], "properties": {}}, {"name": "H", "species": [{"element": "H", "occu": 1}], "xyz": [3.893158, 2.319779, -2.958941], "properties": {}}, {"name": "H", "species": [{"element": "H", "occu": 1}], "xyz": [2.367449, 1.708894, -3.666964], "properties": {}}, {"name": "H", "species": [{"element": "H", "occu": 1}], "xyz": [2.327724, 4.118518, -3.846131], "properties": {}}, {"name": "H", "species": [{"element": "H", "occu": 1}], "xyz": [1.186989, 3.683812, -2.528626], "properties": {}}]}, "smiles": "FC(F)(COCCF)C(F)F", "inchi": "InChI=1S/C5H7F5O/c6-1-2-11-3-5(9,10)4(7)8/h4H,1-3H2", "formula_alphabetical": "C5 F5 H7 O1", "chemsys": "C-F-H-O", "energy": -769.196416761, "esp": {"1": ["F", -0.203072], "2": ["F", -0.19209], "3": ["F", -0.216834], "4": ["F", -0.214802], "5": ["F", -0.270935], "6": ["O", -0.277984], "7": ["C", 0.329929], "8": ["C", -0.165462], "9": ["C", 0.39432], "10": ["C", 0.033592], "11": ["C", 0.154367], "12": ["H", 0.121873], "13": ["H", 0.159444], "14": ["H", 0.082913], "15": ["H", 0.087861], "16": ["H", 0.050716], "17": ["H", 0.057175], "18": ["H", 0.068988]}, "dipole_moment": {"X": -0.4936, "Y": 0.6945, "Z": -4.537, "Tot": 4.6163}, "functional": "B3LYP", "basis": "6-31+G*", "phase": "gas", "tag": "lis", "state": "successful", "wall_time (s)": 10.538202626048587, "version": "0.0.1", "gauss_version": "ES64L-G16RevC.01", "last_updated": "2021-09-14 21:21:46.320000", "polarizability": 68.09, "fluorinated-solvent": "88850722", "run_ids": ["61411197a5ffb42da7a240ac", "6141120d33f355e1cddb15ff"]}