{"_id": "614120ecc83e743c359de16b", "molecule": {"@module": "pymatgen.core.structure", "@class": "Molecule", "charge": 0, "spin_multiplicity": 1, "sites": [{"name": "F", "species": [{"element": "F", "occu": 1}], "xyz": [0.894326, 0.107195, -0.237657], "properties": {}}, {"name": "F", "species": [{"element": "F", "occu": 1}], "xyz": [2.684977, 0.827021, -1.273395], "properties": {}}, {"name": "O", "species": [{"element": "O", "occu": 1}], "xyz": [2.763153, 0.523659, 0.958628], "properties": {}}, {"name": "C", "species": [{"element": "C", "occu": 1}], "xyz": [2.743334, -1.412738, -0.428654], "properties": {}}, {"name": "C", "species": [{"element": "C", "occu": 1}], "xyz": [2.28441, 0.025556, -0.207405], "properties": {}}, {"name": "C", "species": [{"element": "C", "occu": 1}], "xyz": [2.299539, -2.311023, 0.73519], "properties": {}}, {"name": "C", "species": [{"element": "C", "occu": 1}], "xyz": [2.248549, -1.945462, -1.780619], "properties": {}}, {"name": "C", "species": [{"element": "C", "occu": 1}], "xyz": [2.405994, 1.889479, 1.291031], "properties": {}}, {"name": "C", "species": [{"element": "C", "occu": 1}], "xyz": [3.041516, 2.199296, 2.633565], "properties": {}}, {"name": "H", "species": [{"element": "H", "occu": 1}], "xyz": [3.839403, -1.358111, -0.4419], "properties": {}}, {"name": "H", "species": [{"element": "H", "occu": 1}], "xyz": [1.20599, -2.360352, 0.789866], "properties": {}}, {"name": "H", "species": [{"element": "H", "occu": 1}], "xyz": [2.677782, -3.327988, 0.581921], "properties": {}}, {"name": "H", "species": [{"element": "H", "occu": 1}], "xyz": [2.677067, -1.941589, 1.692945], "properties": {}}, {"name": "H", "species": [{"element": "H", "occu": 1}], "xyz": [2.578228, -1.312133, -2.609539], "properties": {}}, {"name": "H", "species": [{"element": "H", "occu": 1}], "xyz": [2.63974, -2.955955, -1.942817], "properties": {}}, {"name": "H", "species": [{"element": "H", "occu": 1}], "xyz": [1.15433, -1.997033, -1.800972], "properties": {}}, {"name": "H", "species": [{"element": "H", "occu": 1}], "xyz": [2.779438, 2.5538, 0.504566], "properties": {}}, {"name": "H", "species": [{"element": "H", "occu": 1}], "xyz": [1.314651, 1.969132, 1.333419], "properties": {}}, {"name": "H", "species": [{"element": "H", "occu": 1}], "xyz": [4.13077, 2.098721, 2.579238], "properties": {}}, {"name": "H", "species": [{"element": "H", "occu": 1}], "xyz": [2.801209, 3.22689, 2.930012], "properties": {}}, {"name": "H", "species": [{"element": "H", "occu": 1}], "xyz": [2.667977, 1.518315, 3.405779], "properties": {}}]}, "smiles": "FC(F)(OCC)C(C)C", "inchi": "InChI=1S/C6H12F2O/c1-4-9-6(7,8)5(2)3/h5H,4H2,1-3H3", "formula_alphabetical": "C6 F2 H12 O1", "chemsys": "C-F-H-O", "energy": -510.816715649, "esp": {"1": ["F", -0.22577], "2": ["F", -0.241403], "3": ["O", -0.403894], "4": ["C", 0.342701], "5": ["C", 0.385864], "6": ["C", -0.345509], "7": ["C", -0.395903], "8": ["C", 0.397293], "9": ["C", -0.361577], "10": ["H", -0.00641], "11": ["H", 0.097482], "12": ["H", 0.085051], "13": ["H", 0.077823], "14": ["H", 0.101968], "15": ["H", 0.097253], "16": ["H", 0.102375], "17": ["H", 0.001599], "18": ["H", -0.001364], "19": ["H", 0.101035], "20": ["H", 0.081803], "21": ["H", 0.109582]}, "dipole_moment": {"X": 0.6872, "Y": -0.0782, "Z": 1.2189, "Tot": 1.4015}, "functional": "B3LYP", "basis": "6-31+G*", "phase": "gas", "tag": "lis", "state": "successful", "wall_time (s)": 9.527092811069451, "version": "0.0.1", "gauss_version": "ES64L-G16RevC.01", "last_updated": "2021-09-14 22:23:39.950000", "polarizability": 77.19, "fluorinated-solvent": "58422611", "run_ids": ["614120d10d4d6fd2691c5179", "614120e02b8208967473b672"]}