{"_id": "61411f99b3f180c033e9ed6d", "molecule": {"@module": "pymatgen.core.structure", "@class": "Molecule", "charge": 0, "spin_multiplicity": 1, "sites": [{"name": "F", "species": [{"element": "F", "occu": 1}], "xyz": [3.083713, 0.956054, -0.693068], "properties": {}}, {"name": "F", "species": [{"element": "F", "occu": 1}], "xyz": [3.085077, -1.234916, -0.962439], "properties": {}}, {"name": "F", "species": [{"element": "F", "occu": 1}], "xyz": [2.933515, -4.039849, 3.147886], "properties": {}}, {"name": "F", "species": [{"element": "F", "occu": 1}], "xyz": [0.442365, 0.705805, 1.759315], "properties": {}}, {"name": "F", "species": [{"element": "F", "occu": 1}], "xyz": [0.603122, 2.048965, 0.050812], "properties": {}}, {"name": "F", "species": [{"element": "F", "occu": 1}], "xyz": [-1.047357, 0.627321, 0.166813], "properties": {}}, {"name": "F", "species": [{"element": "F", "occu": 1}], "xyz": [1.788464, -4.257596, 5.599796], "properties": {}}, {"name": "F", "species": [{"element": "F", "occu": 1}], "xyz": [3.523009, -2.938301, 5.696421], "properties": {}}, {"name": "F", "species": [{"element": "F", "occu": 1}], "xyz": [1.505771, -2.095612, 5.742837], "properties": {}}, {"name": "O", "species": [{"element": "O", "occu": 1}], "xyz": [2.548331, -1.495541, 1.827993], "properties": {}}, {"name": "C", "species": [{"element": "C", "occu": 1}], "xyz": [2.583484, -0.21923, -0.176159], "properties": {}}, {"name": "C", "species": [{"element": "C", "occu": 1}], "xyz": [3.143896, -0.360488, 1.233194], "properties": {}}, {"name": "C", "species": [{"element": "C", "occu": 1}], "xyz": [1.06725, -0.265907, -0.337957], "properties": {}}, {"name": "C", "species": [{"element": "C", "occu": 1}], "xyz": [2.896101, -1.656602, 3.191252], "properties": {}}, {"name": "C", "species": [{"element": "C", "occu": 1}], "xyz": [2.252464, -2.946563, 3.669661], "properties": {}}, {"name": "C", "species": [{"element": "C", "occu": 1}], "xyz": [0.276035, 0.7892, 0.411616], "properties": {}}, {"name": "C", "species": [{"element": "C", "occu": 1}], "xyz": [2.274641, -3.070868, 5.196089], "properties": {}}, {"name": "H", "species": [{"element": "H", "occu": 1}], "xyz": [4.23463, -0.46988, 1.151246], "properties": {}}, {"name": "H", "species": [{"element": "H", "occu": 1}], "xyz": [2.914605, 0.554593, 1.79564], "properties": {}}, {"name": "H", "species": [{"element": "H", "occu": 1}], "xyz": [0.841438, -0.158944, -1.402076], "properties": {}}, {"name": "H", "species": [{"element": "H", "occu": 1}], "xyz": [0.720497, -1.24399, 0.001679], "properties": {}}, {"name": "H", "species": [{"element": "H", "occu": 1}], "xyz": [3.985754, -1.730771, 3.317468], "properties": {}}, {"name": "H", "species": [{"element": "H", "occu": 1}], "xyz": [2.524129, -0.810216, 3.788292], "properties": {}}, {"name": "H", "species": [{"element": "H", "occu": 1}], "xyz": [1.210077, -3.005274, 3.340191], "properties": {}}]}, "smiles": "FC(F)(COC[C@@H](F)C(F)(F)F)CC(F)(F)F", "inchi": "InChI=1S/C7H7F9O/c8-4(7(14,15)16)1-17-3-5(9,10)2-6(11,12)13/h4H,1-3H2/t4-/m1/s1", "formula_alphabetical": "C7 F9 H7 O1", "chemsys": "C-F-H-O", "energy": -1244.83007749, "esp": {"1": ["F", -0.234482], "2": ["F", -0.230691], "3": ["F", -0.182033], "4": ["F", -0.187732], "5": ["F", -0.188155], "6": ["F", -0.206191], "7": ["F", -0.18686], "8": ["F", -0.197146], "9": ["F", -0.215599], "10": ["O", -0.187484], "11": ["C", 0.529098], "12": ["C", -0.235755], "13": ["C", -0.437221], "14": ["C", -0.026594], "15": ["C", -0.084248], "16": ["C", 0.595601], "17": ["C", 0.620374], "18": ["H", 0.161559], "19": ["H", 0.131736], "20": ["H", 0.206777], "21": ["H", 0.16484], "22": ["H", 0.1241], "23": ["H", 0.098993], "24": ["H", 0.167114]}, "dipole_moment": {"X": -0.0395, "Y": 0.7302, "Z": 0.0036, "Tot": 0.7312}, "functional": "B3LYP", "basis": "6-31+G*", "phase": "gas", "tag": "lis", "state": "successful", "wall_time (s)": 17.14181549299974, "version": "0.0.1", "gauss_version": "ES64L-G16RevC.01", "last_updated": "2021-09-14 22:18:01.217000", "polarizability": 93.36, "fluorinated-solvent": "87669547", "run_ids": ["61411f7859c0587d45376f07", "61411f90d29ad74aa1133880"]}