{"_id": "614122ed3cb79741af526191", "molecule": {"@module": "pymatgen.core.structure", "@class": "Molecule", "charge": 0, "spin_multiplicity": 1, "sites": [{"name": "F", "species": [{"element": "F", "occu": 1}], "xyz": [0.783354, -0.129598, 0.20109], "properties": {}}, {"name": "F", "species": [{"element": "F", "occu": 1}], "xyz": [2.210124, 0.346829, -1.382921], "properties": {}}, {"name": "F", "species": [{"element": "F", "occu": 1}], "xyz": [4.185662, -1.11114, -0.057298], "properties": {}}, {"name": "F", "species": [{"element": "F", "occu": 1}], "xyz": [2.778885, -1.577357, 1.549092], "properties": {}}, {"name": "F", "species": [{"element": "F", "occu": 1}], "xyz": [3.293473, 2.757246, -0.526141], "properties": {}}, {"name": "F", "species": [{"element": "F", "occu": 1}], "xyz": [1.196442, 2.609346, 0.085922], "properties": {}}, {"name": "F", "species": [{"element": "F", "occu": 1}], "xyz": [1.975057, 2.82891, 2.765749], "properties": {}}, {"name": "O", "species": [{"element": "O", "occu": 1}], "xyz": [2.653985, 1.001308, 0.743134], "properties": {}}, {"name": "O", "species": [{"element": "O", "occu": 1}], "xyz": [2.312143, -2.268368, -0.546882], "properties": {}}, {"name": "C", "species": [{"element": "C", "occu": 1}], "xyz": [2.099028, 0.034256, -0.070317], "properties": {}}, {"name": "C", "species": [{"element": "C", "occu": 1}], "xyz": [2.851509, -1.300604, 0.20764], "properties": {}}, {"name": "C", "species": [{"element": "C", "occu": 1}], "xyz": [2.467635, 2.349892, 0.486016], "properties": {}}, {"name": "C", "species": [{"element": "C", "occu": 1}], "xyz": [2.831794, 3.153298, 1.727785], "properties": {}}, {"name": "C", "species": [{"element": "C", "occu": 1}], "xyz": [2.89564, -3.585464, -0.41391], "properties": {}}, {"name": "H", "species": [{"element": "H", "occu": 1}], "xyz": [3.858444, 2.915968, 2.019049], "properties": {}}, {"name": "H", "species": [{"element": "H", "occu": 1}], "xyz": [2.725895, 4.215871, 1.492363], "properties": {}}, {"name": "H", "species": [{"element": "H", "occu": 1}], "xyz": [3.948639, -3.563872, -0.707533], "properties": {}}, {"name": "H", "species": [{"element": "H", "occu": 1}], "xyz": [2.788088, -3.944535, 0.613168], "properties": {}}, {"name": "H", "species": [{"element": "H", "occu": 1}], "xyz": [2.32534, -4.214755, -1.096357], "properties": {}}]}, "smiles": "FC(F)(OC(F)(F)CF)C(F)(F)OC", "inchi": "InChI=1S/C5H5F7O2/c1-13-4(9,10)5(11,12)14-3(7,8)2-6/h2H2,1H3", "formula_alphabetical": "C5 F7 H5 O2", "chemsys": "C-F-H-O", "energy": -1042.92226675, "esp": {"1": ["F", -0.129872], "2": ["F", -0.116716], "3": ["F", -0.160223], "4": ["F", -0.155276], "5": ["F", -0.212452], "6": ["F", -0.15334], "7": ["F", -0.209198], "8": ["O", -0.246297], "9": ["O", -0.238914], "10": ["C", 0.308637], "11": ["C", 0.349042], "12": ["C", 0.474669], "13": ["C", 0.014745], "14": ["C", -0.131739], "15": ["H", 0.118372], "16": ["H", 0.119999], "17": ["H", 0.120008], "18": ["H", 0.120834], "19": ["H", 0.127723]}, "dipole_moment": {"X": 1.9231, "Y": -1.3455, "Z": -0.0216, "Tot": 2.3471}, "functional": "B3LYP", "basis": "6-31+G*", "phase": "gas", "tag": "lis", "state": "successful", "wall_time (s)": 11.7649070979096, "version": "0.0.1", "gauss_version": "ES64L-G16RevC.01", "last_updated": "2021-09-14 22:32:12.733000", "polarizability": 74.03, "fluorinated-solvent": "60020186", "run_ids": ["614122c742910cfabd3ba65d", "614122e421c74a57609c7130"]}