{"_id": "61412ccfac41abc81c9a2679", "molecule": {"@module": "pymatgen.core.structure", "@class": "Molecule", "charge": 0, "spin_multiplicity": 1, "sites": [{"name": "F", "species": [{"element": "F", "occu": 1}], "xyz": [3.871449, 2.962585, 2.491384], "properties": {}}, {"name": "F", "species": [{"element": "F", "occu": 1}], "xyz": [1.780942, 2.345437, 2.672921], "properties": {}}, {"name": "F", "species": [{"element": "F", "occu": 1}], "xyz": [2.621429, 2.83672, 0.715974], "properties": {}}, {"name": "F", "species": [{"element": "F", "occu": 1}], "xyz": [4.489212, -3.162773, -0.717214], "properties": {}}, {"name": "F", "species": [{"element": "F", "occu": 1}], "xyz": [3.090629, -3.306308, 0.962464], "properties": {}}, {"name": "O", "species": [{"element": "O", "occu": 1}], "xyz": [3.186172, 0.938985, 1.785762], "properties": {}}, {"name": "O", "species": [{"element": "O", "occu": 1}], "xyz": [3.42765, -1.295353, -0.014794], "properties": {}}, {"name": "C", "species": [{"element": "C", "occu": 1}], "xyz": [4.37049, 0.638096, 1.010119], "properties": {}}, {"name": "C", "species": [{"element": "C", "occu": 1}], "xyz": [4.467418, -0.862469, 0.887085], "properties": {}}, {"name": "C", "species": [{"element": "C", "occu": 1}], "xyz": [2.874283, 2.237781, 1.910589], "properties": {}}, {"name": "C", "species": [{"element": "C", "occu": 1}], "xyz": [3.321013, -2.628472, -0.213033], "properties": {}}, {"name": "H", "species": [{"element": "H", "occu": 1}], "xyz": [4.290728, 1.103514, 0.02281], "properties": {}}, {"name": "H", "species": [{"element": "H", "occu": 1}], "xyz": [5.250717, 1.02501, 1.534885], "properties": {}}, {"name": "H", "species": [{"element": "H", "occu": 1}], "xyz": [5.446473, -1.130141, 0.474438], "properties": {}}, {"name": "H", "species": [{"element": "H", "occu": 1}], "xyz": [4.337314, -1.339445, 1.863338], "properties": {}}, {"name": "H", "species": [{"element": "H", "occu": 1}], "xyz": [2.50634, -2.827945, -0.909368], "properties": {}}]}, "smiles": "FC(F)(F)OCCOC(F)F", "inchi": "InChI=1S/C4H5F5O2/c5-3(6)10-1-2-11-4(7,8)9/h3H,1-2H2", "formula_alphabetical": "C4 F5 H5 O2", "chemsys": "C-F-H-O", "energy": -805.137739634, "esp": {"1": ["F", -0.213039], "2": ["F", -0.186466], "3": ["F", -0.210837], "4": ["F", -0.235558], "5": ["F", -0.22744], "6": ["O", -0.330056], "7": ["O", -0.363219], "8": ["C", 0.027814], "9": ["C", 0.127415], "10": ["C", 0.691514], "11": ["C", 0.446619], "12": ["H", 0.107], "13": ["H", 0.077399], "14": ["H", 0.073778], "15": ["H", 0.097755], "16": ["H", 0.11732]}, "dipole_moment": {"X": 1.8151, "Y": -0.3447, "Z": -1.0068, "Tot": 2.1041}, "functional": "B3LYP", "basis": "6-31+G*", "phase": "gas", "tag": "lis", "state": "successful", "wall_time (s)": 8.403125138953328, "version": "0.0.1", "gauss_version": "ES64L-G16RevC.01", "last_updated": "2021-09-14 23:14:23.318000", "polarizability": 61.08, "fluorinated-solvent": "126641754", "run_ids": ["61412cafbd2be94fe0fc78e0", "61412cc8d2cbb1766beccaee"]}