{"_id": "613a559eb8740bece062125c", "molecule": {"@module": "pymatgen.core.structure", "@class": "Molecule", "charge": 0, "spin_multiplicity": 1, "sites": [{"name": "F", "species": [{"element": "F", "occu": 1}], "xyz": [2.444712, -1.910028, -2.992377], "properties": {}}, {"name": "F", "species": [{"element": "F", "occu": 1}], "xyz": [2.557973, 0.260833, -2.766958], "properties": {}}, {"name": "F", "species": [{"element": "F", "occu": 1}], "xyz": [0.785328, -0.822169, -2.087966], "properties": {}}, {"name": "O", "species": [{"element": "O", "occu": 1}], "xyz": [2.33305, -2.200105, -0.215502], "properties": {}}, {"name": "C", "species": [{"element": "C", "occu": 1}], "xyz": [2.854704, -2.524865, 1.090734], "properties": {}}, {"name": "C", "species": [{"element": "C", "occu": 1}], "xyz": [2.791786, -1.012737, -0.806316], "properties": {}}, {"name": "C", "species": [{"element": "C", "occu": 1}], "xyz": [4.362481, -2.78647, 1.059351], "properties": {}}, {"name": "C", "species": [{"element": "C", "occu": 1}], "xyz": [2.45321, -1.490278, 2.14479], "properties": {}}, {"name": "C", "species": [{"element": "C", "occu": 1}], "xyz": [2.131728, -0.885891, -2.169648], "properties": {}}, {"name": "H", "species": [{"element": "H", "occu": 1}], "xyz": [2.340072, -3.466448, 1.309575], "properties": {}}, {"name": "H", "species": [{"element": "H", "occu": 1}], "xyz": [3.877261, -1.008562, -0.976284], "properties": {}}, {"name": "H", "species": [{"element": "H", "occu": 1}], "xyz": [2.518254, -0.11518, -0.234615], "properties": {}}, {"name": "H", "species": [{"element": "H", "occu": 1}], "xyz": [4.937981, -1.863084, 0.921045], "properties": {}}, {"name": "H", "species": [{"element": "H", "occu": 1}], "xyz": [4.681351, -3.230161, 2.009594], "properties": {}}, {"name": "H", "species": [{"element": "H", "occu": 1}], "xyz": [4.61435, -3.481579, 0.25132], "properties": {}}, {"name": "H", "species": [{"element": "H", "occu": 1}], "xyz": [1.378653, -1.285101, 2.091456], "properties": {}}, {"name": "H", "species": [{"element": "H", "occu": 1}], "xyz": [2.683087, -1.872869, 3.145909], "properties": {}}, {"name": "H", "species": [{"element": "H", "occu": 1}], "xyz": [2.997989, -0.546124, 2.023072], "properties": {}}]}, "smiles": "FC(F)(F)COC(C)C", "inchi": "InChI=1S/C5H9F3O/c1-4(2)9-3-5(6,7)8/h4H,3H2,1-2H3", "formula_alphabetical": "C5 F3 H9 O1", "chemsys": "C-F-H-O", "energy": -570.729180615, "esp": {"1": ["F", -0.214822], "2": ["F", -0.264508], "3": ["F", -0.213563], "4": ["O", -0.52676], "5": ["C", 0.631194], "6": ["C", 0.017848], "7": ["C", -0.469682], "8": ["C", -0.475858], "9": ["C", 0.679708], "10": ["H", -0.015857], "11": ["H", 0.073045], "12": ["H", 0.073202], "13": ["H", 0.117298], "14": ["H", 0.104253], "15": ["H", 0.129722], "16": ["H", 0.131115], "17": ["H", 0.107842], "18": ["H", 0.115821]}, "dipole_moment": {"X": 1.9022, "Y": 0.0754, "Z": 3.3419, "Tot": 3.8461}, "functional": "B3LYP", "basis": "6-31+G*", "phase": "gas", "tag": "lis", "state": "successful", "wall_time (s)": 7.402832807041705, "version": "0.0.1", "gauss_version": "ES64L-G16RevC.01", "last_updated": "2021-09-09 18:42:38.604000", "polarizability": 66.54, "fluorinated-solvent": "20666961", "run_ids": ["613a4ae31ebb8d3ad3ed35ef", "613a5593e0314689098477c0"]}