{"_id": "6141188ccd1d5aeb3a153744", "molecule": {"@module": "pymatgen.core.structure", "@class": "Molecule", "charge": 0, "spin_multiplicity": 1, "sites": [{"name": "F", "species": [{"element": "F", "occu": 1}], "xyz": [1.178706, -0.450289, -0.086069], "properties": {}}, {"name": "F", "species": [{"element": "F", "occu": 1}], "xyz": [3.171466, -1.281584, -0.434236], "properties": {}}, {"name": "F", "species": [{"element": "F", "occu": 1}], "xyz": [2.278308, 0.771366, 4.187658], "properties": {}}, {"name": "F", "species": [{"element": "F", "occu": 1}], "xyz": [3.908974, 2.026428, 3.459861], "properties": {}}, {"name": "F", "species": [{"element": "F", "occu": 1}], "xyz": [1.926167, 2.887138, 3.774776], "properties": {}}, {"name": "F", "species": [{"element": "F", "occu": 1}], "xyz": [1.843068, 2.964641, -2.469116], "properties": {}}, {"name": "F", "species": [{"element": "F", "occu": 1}], "xyz": [3.93571, 2.485516, -2.849544], "properties": {}}, {"name": "F", "species": [{"element": "F", "occu": 1}], "xyz": [2.398432, 1.858585, -4.272288], "properties": {}}, {"name": "O", "species": [{"element": "O", "occu": 1}], "xyz": [2.804761, 0.897283, -0.872706], "properties": {}}, {"name": "C", "species": [{"element": "C", "occu": 1}], "xyz": [2.927249, 0.210754, 1.395038], "properties": {}}, {"name": "C", "species": [{"element": "C", "occu": 1}], "xyz": [2.195309, 1.455789, 1.90767], "properties": {}}, {"name": "C", "species": [{"element": "C", "occu": 1}], "xyz": [2.526064, -0.132839, -0.022926], "properties": {}}, {"name": "C", "species": [{"element": "C", "occu": 1}], "xyz": [2.577897, 1.784855, 3.33298], "properties": {}}, {"name": "C", "species": [{"element": "C", "occu": 1}], "xyz": [2.495123, 0.685043, -2.250418], "properties": {}}, {"name": "C", "species": [{"element": "C", "occu": 1}], "xyz": [2.674426, 2.01848, -2.955131], "properties": {}}, {"name": "H", "species": [{"element": "H", "occu": 1}], "xyz": [2.69945, -0.661625, 2.013761], "properties": {}}, {"name": "H", "species": [{"element": "H", "occu": 1}], "xyz": [4.010093, 0.363408, 1.402313], "properties": {}}, {"name": "H", "species": [{"element": "H", "occu": 1}], "xyz": [2.432885, 2.328568, 1.293273], "properties": {}}, {"name": "H", "species": [{"element": "H", "occu": 1}], "xyz": [1.111528, 1.308516, 1.886723], "properties": {}}, {"name": "H", "species": [{"element": "H", "occu": 1}], "xyz": [3.177405, -0.043383, -2.697468], "properties": {}}, {"name": "H", "species": [{"element": "H", "occu": 1}], "xyz": [1.458528, 0.362331, -2.379761], "properties": {}}]}, "smiles": "FC(F)(OCC(F)(F)F)CCC(F)(F)F", "inchi": "InChI=1S/C6H6F8O/c7-4(8,9)1-2-6(13,14)15-3-5(10,11)12/h1-3H2", "formula_alphabetical": "C6 F8 H6 O1", "chemsys": "C-F-H-O", "energy": -1106.30123232, "esp": {"1": ["F", -0.233758], "2": ["F", -0.249959], "3": ["F", -0.220688], "4": ["F", -0.214931], "5": ["F", -0.232326], "6": ["F", -0.198715], "7": ["F", -0.201039], "8": ["F", -0.222233], "9": ["O", -0.247897], "10": ["C", -0.336197], "11": ["C", -0.167791], "12": ["C", 0.635417], "13": ["C", 0.643271], "14": ["C", -0.32304], "15": ["C", 0.669819], "16": ["H", 0.15176], "17": ["H", 0.143424], "18": ["H", 0.100679], "19": ["H", 0.113147], "20": ["H", 0.200951], "21": ["H", 0.190108]}, "dipole_moment": {"X": -0.3579, "Y": -1.4149, "Z": -1.1596, "Tot": 1.864}, "functional": "B3LYP", "basis": "6-31+G*", "phase": "gas", "tag": "lis", "state": "successful", "wall_time (s)": 13.00939648190979, "version": "0.0.1", "gauss_version": "ES64L-G16RevC.01", "last_updated": "2021-09-14 21:47:55.822000", "polarizability": 80.79, "fluorinated-solvent": "152221072", "run_ids": ["6141186b2301c6adba7d3bca", "61411884cfcc8288f2231373"]}