{"_id": "61411d5c7424fc301f9346a0", "molecule": {"@module": "pymatgen.core.structure", "@class": "Molecule", "charge": 0, "spin_multiplicity": 1, "sites": [{"name": "F", "species": [{"element": "F", "occu": 1}], "xyz": [2.471813, 0.540314, -3.19362], "properties": {}}, {"name": "F", "species": [{"element": "F", "occu": 1}], "xyz": [1.138725, 0.741381, -1.470548], "properties": {}}, {"name": "F", "species": [{"element": "F", "occu": 1}], "xyz": [4.469954, 1.894179, -1.880498], "properties": {}}, {"name": "F", "species": [{"element": "F", "occu": 1}], "xyz": [2.560483, 2.987091, -2.027345], "properties": {}}, {"name": "O", "species": [{"element": "O", "occu": 1}], "xyz": [3.061209, -0.414619, -1.237614], "properties": {}}, {"name": "C", "species": [{"element": "C", "occu": 1}], "xyz": [3.06887, -2.717785, -0.560469], "properties": {}}, {"name": "C", "species": [{"element": "C", "occu": 1}], "xyz": [2.564921, -1.734364, -1.605621], "properties": {}}, {"name": "C", "species": [{"element": "C", "occu": 1}], "xyz": [2.609905, -2.415416, 0.875898], "properties": {}}, {"name": "C", "species": [{"element": "C", "occu": 1}], "xyz": [2.473293, 0.640752, -1.827152], "properties": {}}, {"name": "C", "species": [{"element": "C", "occu": 1}], "xyz": [3.187494, 1.94527, -1.390121], "properties": {}}, {"name": "C", "species": [{"element": "C", "occu": 1}], "xyz": [1.086915, -2.408353, 1.060902], "properties": {}}, {"name": "C", "species": [{"element": "C", "occu": 1}], "xyz": [3.205813, 2.179207, 0.100528], "properties": {}}, {"name": "H", "species": [{"element": "H", "occu": 1}], "xyz": [2.71866, -3.715468, -0.862322], "properties": {}}, {"name": "H", "species": [{"element": "H", "occu": 1}], "xyz": [4.165566, -2.740575, -0.601049], "properties": {}}, {"name": "H", "species": [{"element": "H", "occu": 1}], "xyz": [1.472109, -1.70204, -1.642597], "properties": {}}, {"name": "H", "species": [{"element": "H", "occu": 1}], "xyz": [2.946907, -1.975503, -2.6024], "properties": {}}, {"name": "H", "species": [{"element": "H", "occu": 1}], "xyz": [3.05464, -3.167914, 1.540422], "properties": {}}, {"name": "H", "species": [{"element": "H", "occu": 1}], "xyz": [3.021857, -1.446674, 1.185165], "properties": {}}, {"name": "H", "species": [{"element": "H", "occu": 1}], "xyz": [0.640249, -3.350573, 0.716333], "properties": {}}, {"name": "H", "species": [{"element": "H", "occu": 1}], "xyz": [0.822979, -2.28215, 2.117379], "properties": {}}, {"name": "H", "species": [{"element": "H", "occu": 1}], "xyz": [0.613206, -1.589483, 0.506891], "properties": {}}, {"name": "H", "species": [{"element": "H", "occu": 1}], "xyz": [2.182403, 2.235515, 0.479183], "properties": {}}, {"name": "H", "species": [{"element": "H", "occu": 1}], "xyz": [3.734869, 1.361862, 0.595074], "properties": {}}, {"name": "H", "species": [{"element": "H", "occu": 1}], "xyz": [3.720541, 3.124213, 0.293511], "properties": {}}]}, "smiles": "FC(F)(OCCCC)C(F)(F)C", "inchi": "InChI=1S/C7H12F4O/c1-3-4-5-12-7(10,11)6(2,8)9/h3-5H2,1-2H3", "formula_alphabetical": "C7 F4 H12 O1", "chemsys": "C-F-H-O", "energy": -748.614116157, "esp": {"1": ["F", -0.178795], "2": ["F", -0.191281], "3": ["F", -0.234476], "4": ["F", -0.229576], "5": ["O", -0.300465], "6": ["C", -0.243276], "7": ["C", 0.126826], "8": ["C", 0.268316], "9": ["C", 0.313236], "10": ["C", 0.540326], "11": ["C", -0.278816], "12": ["C", -0.503915], "13": ["H", 0.069768], "14": ["H", 0.075134], "15": ["H", 0.065095], "16": ["H", 0.078437], "17": ["H", -0.032333], "18": ["H", -0.042823], "19": ["H", 0.062634], "20": ["H", 0.058526], "21": ["H", 0.078653], "22": ["H", 0.16177], "23": ["H", 0.166075], "24": ["H", 0.170961]}, "dipole_moment": {"X": -0.0119, "Y": -2.5797, "Z": 2.6034, "Tot": 3.6651}, "functional": "B3LYP", "basis": "6-31+G*", "phase": "gas", "tag": "lis", "state": "successful", "wall_time (s)": 11.95363353099674, "version": "0.0.1", "gauss_version": "ES64L-G16RevC.01", "last_updated": "2021-09-14 22:08:28.339000", "polarizability": 89.54, "fluorinated-solvent": "152301997", "run_ids": ["61411d3de4d0ec7da0beee2e", "61411d5487a615590ff4122a"]}