{"_id": "61412df0a1a0b9b9d8781f7e", "molecule": {"@module": "pymatgen.core.structure", "@class": "Molecule", "charge": 0, "spin_multiplicity": 1, "sites": [{"name": "F", "species": [{"element": "F", "occu": 1}], "xyz": [2.704117, 1.162583, 0.75097], "properties": {}}, {"name": "F", "species": [{"element": "F", "occu": 1}], "xyz": [1.090832, -0.055876, -0.064362], "properties": {}}, {"name": "F", "species": [{"element": "F", "occu": 1}], "xyz": [2.577705, -3.497029, 2.170692], "properties": {}}, {"name": "F", "species": [{"element": "F", "occu": 1}], "xyz": [4.248406, -2.307077, 2.928726], "properties": {}}, {"name": "F", "species": [{"element": "F", "occu": 1}], "xyz": [2.125842, 2.107579, -1.768373], "properties": {}}, {"name": "F", "species": [{"element": "F", "occu": 1}], "xyz": [3.448142, 1.045378, -3.139754], "properties": {}}, {"name": "F", "species": [{"element": "F", "occu": 1}], "xyz": [1.433877, 0.311316, -2.778388], "properties": {}}, {"name": "O", "species": [{"element": "O", "occu": 1}], "xyz": [2.473502, -1.249964, 2.027975], "properties": {}}, {"name": "O", "species": [{"element": "O", "occu": 1}], "xyz": [3.041047, 0.110728, -1.217623], "properties": {}}, {"name": "C", "species": [{"element": "C", "occu": 1}], "xyz": [3.03236, -1.195079, 0.718475], "properties": {}}, {"name": "C", "species": [{"element": "C", "occu": 1}], "xyz": [2.441889, 0.033536, 0.044435], "properties": {}}, {"name": "C", "species": [{"element": "C", "occu": 1}], "xyz": [2.868799, -2.301301, 2.806315], "properties": {}}, {"name": "C", "species": [{"element": "C", "occu": 1}], "xyz": [2.213405, -2.244135, 4.160288], "properties": {}}, {"name": "C", "species": [{"element": "C", "occu": 1}], "xyz": [2.501135, 0.896412, -2.207875], "properties": {}}, {"name": "H", "species": [{"element": "H", "occu": 1}], "xyz": [2.760506, -2.077612, 0.132864], "properties": {}}, {"name": "H", "species": [{"element": "H", "occu": 1}], "xyz": [4.11995, -1.086109, 0.754587], "properties": {}}, {"name": "H", "species": [{"element": "H", "occu": 1}], "xyz": [2.492426, -1.312447, 4.657496], "properties": {}}, {"name": "H", "species": [{"element": "H", "occu": 1}], "xyz": [1.128647, -2.283401, 4.038311], "properties": {}}, {"name": "H", "species": [{"element": "H", "occu": 1}], "xyz": [2.550683, -3.096553, 4.753912], "properties": {}}]}, "smiles": "FC(F)(OC(F)(F)F)COC(F)(F)C", "inchi": "InChI=1S/C5H5F7O2/c1-3(6,7)13-2-4(8,9)14-5(10,11)12/h2H2,1H3", "formula_alphabetical": "C5 F7 H5 O2", "chemsys": "C-F-H-O", "energy": -1042.95345115, "esp": {"1": ["F", -0.204134], "2": ["F", -0.206474], "3": ["F", -0.265976], "4": ["F", -0.267678], "5": ["F", -0.187832], "6": ["F", -0.178458], "7": ["F", -0.195608], "8": ["O", -0.379851], "9": ["O", -0.441383], "10": ["C", -0.123281], "11": ["C", 0.67815], "12": ["C", 0.761923], "13": ["C", -0.567795], "14": ["C", 0.74009], "15": ["H", 0.146639], "16": ["H", 0.151449], "17": ["H", 0.180273], "18": ["H", 0.181142], "19": ["H", 0.178804]}, "dipole_moment": {"X": 0.1033, "Y": -1.0063, "Z": 1.62, "Tot": 1.9099}, "functional": "B3LYP", "basis": "6-31+G*", "phase": "gas", "tag": "lis", "state": "successful", "wall_time (s)": 13.741757737006992, "version": "0.0.1", "gauss_version": "ES64L-G16RevC.01", "last_updated": "2021-09-14 23:19:12.733000", "polarizability": 74.12, "fluorinated-solvent": "59941662", "run_ids": ["61412dd570718dff1683414a", "61412dea8b7c3236f5a1ce0b"]}