{"_id": "61410e1f0819e9d4eff083a0", "molecule": {"@module": "pymatgen.core.structure", "@class": "Molecule", "charge": 0, "spin_multiplicity": 1, "sites": [{"name": "F", "species": [{"element": "F", "occu": 1}], "xyz": [3.078659, -1.131366, 0.546322], "properties": {}}, {"name": "F", "species": [{"element": "F", "occu": 1}], "xyz": [3.189867, 1.0747, 0.660661], "properties": {}}, {"name": "F", "species": [{"element": "F", "occu": 1}], "xyz": [2.841834, 3.641799, -3.546613], "properties": {}}, {"name": "F", "species": [{"element": "F", "occu": 1}], "xyz": [1.843252, 3.697788, -6.068687], "properties": {}}, {"name": "F", "species": [{"element": "F", "occu": 1}], "xyz": [3.633883, 2.453839, -6.004019], "properties": {}}, {"name": "F", "species": [{"element": "F", "occu": 1}], "xyz": [1.659738, 1.521311, -6.126783], "properties": {}}, {"name": "O", "species": [{"element": "O", "occu": 1}], "xyz": [2.468535, 1.119078, -2.146328], "properties": {}}, {"name": "C", "species": [{"element": "C", "occu": 1}], "xyz": [2.583545, 0.036903, -0.02126], "properties": {}}, {"name": "C", "species": [{"element": "C", "occu": 1}], "xyz": [3.081882, 0.042115, -1.462173], "properties": {}}, {"name": "C", "species": [{"element": "C", "occu": 1}], "xyz": [1.085468, 0.122726, 0.195465], "properties": {}}, {"name": "C", "species": [{"element": "C", "occu": 1}], "xyz": [2.917841, 1.258725, -3.4799], "properties": {}}, {"name": "C", "species": [{"element": "C", "occu": 1}], "xyz": [2.245845, 2.494173, -4.055392], "properties": {}}, {"name": "C", "species": [{"element": "C", "occu": 1}], "xyz": [0.297773, -0.99481, -0.496229], "properties": {}}, {"name": "C", "species": [{"element": "C", "occu": 1}], "xyz": [2.354164, 2.553259, -5.581685], "properties": {}}, {"name": "H", "species": [{"element": "H", "occu": 1}], "xyz": [4.175982, 0.146625, -1.443449], "properties": {}}, {"name": "H", "species": [{"element": "H", "occu": 1}], "xyz": [2.824841, -0.919924, -1.929305], "properties": {}}, {"name": "H", "species": [{"element": "H", "occu": 1}], "xyz": [0.929157, 0.098135, 1.279894], "properties": {}}, {"name": "H", "species": [{"element": "H", "occu": 1}], "xyz": [0.765457, 1.105026, -0.165734], "properties": {}}, {"name": "H", "species": [{"element": "H", "occu": 1}], "xyz": [4.008462, 1.393351, -3.521799], "properties": {}}, {"name": "H", "species": [{"element": "H", "occu": 1}], "xyz": [2.648469, 0.374524, -4.078857], "properties": {}}, {"name": "H", "species": [{"element": "H", "occu": 1}], "xyz": [1.183853, 2.516231, -3.790247], "properties": {}}, {"name": "H", "species": [{"element": "H", "occu": 1}], "xyz": [0.651147, -1.983095, -0.182984], "properties": {}}, {"name": "H", "species": [{"element": "H", "occu": 1}], "xyz": [-0.764239, -0.9192, -0.240259], "properties": {}}, {"name": "H", "species": [{"element": "H", "occu": 1}], "xyz": [0.380333, -0.925685, -1.586941], "properties": {}}]}, "smiles": "FC(F)(COC[C@@H](F)C(F)(F)F)CC", "inchi": "InChI=1S/C7H10F6O/c1-2-6(9,10)4-14-3-5(8)7(11,12)13/h5H,2-4H2,1H3/t5-/m1/s1", "formula_alphabetical": "C7 F6 H10 O1", "chemsys": "C-F-H-O", "energy": -947.090432999, "esp": {"1": ["F", -0.265511], "2": ["F", -0.266226], "3": ["F", -0.181744], "4": ["F", -0.192949], "5": ["F", -0.202008], "6": ["F", -0.224027], "7": ["O", -0.198251], "8": ["C", 0.475988], "9": ["C", -0.157474], "10": ["C", 0.055816], "11": ["C", -0.034244], "12": ["C", -0.083994], "13": ["C", -0.295502], "14": ["C", 0.640043], "15": ["H", 0.136286], "16": ["H", 0.097212], "17": ["H", 0.052404], "18": ["H", 0.007625], "19": ["H", 0.121892], "20": ["H", 0.094491], "21": ["H", 0.164726], "22": ["H", 0.082689], "23": ["H", 0.090709], "24": ["H", 0.082051]}, "dipole_moment": {"X": -1.6773, "Y": -2.2722, "Z": -0.732, "Tot": 2.9175}, "functional": "B3LYP", "basis": "6-31+G*", "phase": "gas", "tag": "lis", "state": "successful", "wall_time (s)": 13.326602141954936, "version": "0.0.1", "gauss_version": "ES64L-G16RevC.01", "last_updated": "2021-09-14 21:03:27.259000", "polarizability": 91.41, "fluorinated-solvent": "58537766", "run_ids": ["61410dbbcb29d3990c2297a2", "61410de9f1e4d2bfca4c84ba"]}