{"_id": "6141254f339336af8fd944af", "molecule": {"@module": "pymatgen.core.structure", "@class": "Molecule", "charge": 0, "spin_multiplicity": 1, "sites": [{"name": "F", "species": [{"element": "F", "occu": 1}], "xyz": [1.094145, -0.230028, 0.160185], "properties": {}}, {"name": "F", "species": [{"element": "F", "occu": 1}], "xyz": [2.708847, -0.412772, -1.3076], "properties": {}}, {"name": "F", "species": [{"element": "F", "occu": 1}], "xyz": [2.406141, 3.924847, 1.129998], "properties": {}}, {"name": "O", "species": [{"element": "O", "occu": 1}], "xyz": [2.830476, 1.208136, 0.255842], "properties": {}}, {"name": "C", "species": [{"element": "C", "occu": 1}], "xyz": [2.162447, 2.223221, -0.515889], "properties": {}}, {"name": "C", "species": [{"element": "C", "occu": 1}], "xyz": [2.468075, -0.078721, 0.022344], "properties": {}}, {"name": "C", "species": [{"element": "C", "occu": 1}], "xyz": [2.780607, 3.569131, -0.185879], "properties": {}}, {"name": "C", "species": [{"element": "C", "occu": 1}], "xyz": [3.203253, -1.037425, 0.934796], "properties": {}}, {"name": "C", "species": [{"element": "C", "occu": 1}], "xyz": [4.294658, 3.620118, -0.286688], "properties": {}}, {"name": "C", "species": [{"element": "C", "occu": 1}], "xyz": [2.929677, -0.776458, 2.419131], "properties": {}}, {"name": "H", "species": [{"element": "H", "occu": 1}], "xyz": [2.286615, 2.016196, -1.585444], "properties": {}}, {"name": "H", "species": [{"element": "H", "occu": 1}], "xyz": [1.096953, 2.230835, -0.267197], "properties": {}}, {"name": "H", "species": [{"element": "H", "occu": 1}], "xyz": [2.316196, 4.315281, -0.8443], "properties": {}}, {"name": "H", "species": [{"element": "H", "occu": 1}], "xyz": [2.892663, -2.04657, 0.644869], "properties": {}}, {"name": "H", "species": [{"element": "H", "occu": 1}], "xyz": [4.269898, -0.938752, 0.706409], "properties": {}}, {"name": "H", "species": [{"element": "H", "occu": 1}], "xyz": [4.613835, 3.375514, -1.306788], "properties": {}}, {"name": "H", "species": [{"element": "H", "occu": 1}], "xyz": [4.651848, 4.624177, -0.038734], "properties": {}}, {"name": "H", "species": [{"element": "H", "occu": 1}], "xyz": [4.744291, 2.900117, 0.401914], "properties": {}}, {"name": "H", "species": [{"element": "H", "occu": 1}], "xyz": [1.863016, -0.877606, 2.644551], "properties": {}}, {"name": "H", "species": [{"element": "H", "occu": 1}], "xyz": [3.47865, -1.497853, 3.033797], "properties": {}}, {"name": "H", "species": [{"element": "H", "occu": 1}], "xyz": [3.245429, 0.23182, 2.703972], "properties": {}}]}, "smiles": "FC(F)(OC[C@@H](F)C)CC", "inchi": "InChI=1S/C6H11F3O/c1-3-6(8,9)10-4-5(2)7/h5H,3-4H2,1-2H3/t5-/m0/s1", "formula_alphabetical": "C6 F3 H11 O1", "chemsys": "C-F-H-O", "energy": -610.058793642, "esp": {"1": ["F", -0.218223], "2": ["F", -0.258538], "3": ["F", -0.308693], "4": ["O", -0.226102], "5": ["C", -0.140641], "6": ["C", 0.462635], "7": ["C", 0.426025], "8": ["C", -0.070065], "9": ["C", -0.401155], "10": ["C", -0.156228], "11": ["H", 0.120349], "12": ["H", 0.115221], "13": ["H", 0.008271], "14": ["H", 0.07295], "15": ["H", 0.060419], "16": ["H", 0.102332], "17": ["H", 0.121882], "18": ["H", 0.121499], "19": ["H", 0.058722], "20": ["H", 0.058285], "21": ["H", 0.051054]}, "dipole_moment": {"X": 1.3649, "Y": 0.2253, "Z": -0.8913, "Tot": 1.6457}, "functional": "B3LYP", "basis": "6-31+G*", "phase": "gas", "tag": "lis", "state": "successful", "wall_time (s)": 8.952893932000734, "version": "0.0.1", "gauss_version": "ES64L-G16RevC.01", "last_updated": "2021-09-14 22:42:23.409000", "polarizability": 77.36, "fluorinated-solvent": "89927960", "run_ids": ["6141253945005d42a9963f73", "6141254a298d2ae4d188d10d"]}