{"_id": "614114d5e029811313ae78c0", "molecule": {"@module": "pymatgen.core.structure", "@class": "Molecule", "charge": 0, "spin_multiplicity": 1, "sites": [{"name": "F", "species": [{"element": "F", "occu": 1}], "xyz": [1.362241, -0.222096, 0.701996], "properties": {}}, {"name": "F", "species": [{"element": "F", "occu": 1}], "xyz": [3.362996, -1.084574, 0.777882], "properties": {}}, {"name": "F", "species": [{"element": "F", "occu": 1}], "xyz": [3.281725, 1.418392, 1.794487], "properties": {}}, {"name": "F", "species": [{"element": "F", "occu": 1}], "xyz": [4.489151, 1.294226, -0.016439], "properties": {}}, {"name": "F", "species": [{"element": "F", "occu": 1}], "xyz": [0.665083, -1.377848, -1.862676], "properties": {}}, {"name": "F", "species": [{"element": "F", "occu": 1}], "xyz": [2.555028, -0.923912, -3.900175], "properties": {}}, {"name": "F", "species": [{"element": "F", "occu": 1}], "xyz": [3.688954, 3.885202, -1.046434], "properties": {}}, {"name": "O", "species": [{"element": "O", "occu": 1}], "xyz": [2.580077, -0.344707, -1.199214], "properties": {}}, {"name": "O", "species": [{"element": "O", "occu": 1}], "xyz": [2.424348, 2.211712, -0.131748], "properties": {}}, {"name": "C", "species": [{"element": "C", "occu": 1}], "xyz": [2.598763, -0.140548, 0.143552], "properties": {}}, {"name": "C", "species": [{"element": "C", "occu": 1}], "xyz": [3.207722, 1.259149, 0.436919], "properties": {}}, {"name": "C", "species": [{"element": "C", "occu": 1}], "xyz": [2.019013, -1.557834, -1.659988], "properties": {}}, {"name": "C", "species": [{"element": "C", "occu": 1}], "xyz": [2.694173, -1.938028, -2.963602], "properties": {}}, {"name": "C", "species": [{"element": "C", "occu": 1}], "xyz": [2.84311, 3.556096, -0.008208], "properties": {}}, {"name": "H", "species": [{"element": "H", "occu": 1}], "xyz": [2.141049, -2.351391, -0.914523], "properties": {}}, {"name": "H", "species": [{"element": "H", "occu": 1}], "xyz": [3.761613, -2.106817, -2.785633], "properties": {}}, {"name": "H", "species": [{"element": "H", "occu": 1}], "xyz": [2.223091, -2.843913, -3.359376], "properties": {}}, {"name": "H", "species": [{"element": "H", "occu": 1}], "xyz": [1.9379, 4.156701, -0.097129], "properties": {}}, {"name": "H", "species": [{"element": "H", "occu": 1}], "xyz": [3.373803, 3.723181, 0.932438], "properties": {}}]}, "smiles": "FC(F)(O[C@@H](F)CF)C(F)(F)OCF", "inchi": "InChI=1S/C5H5F7O2/c6-1-3(8)14-5(11,12)4(9,10)13-2-7/h3H,1-2H2/t3-/m1/s1", "formula_alphabetical": "C5 F7 H5 O2", "chemsys": "C-F-H-O", "energy": -1042.91560916, "esp": {"1": ["F", -0.158426], "2": ["F", -0.180036], "3": ["F", -0.150233], "4": ["F", -0.123476], "5": ["F", -0.217499], "6": ["F", -0.204711], "7": ["F", -0.225996], "8": ["O", -0.247697], "9": ["O", -0.257437], "10": ["C", 0.411961], "11": ["C", 0.286804], "12": ["C", 0.316403], "13": ["C", 0.02515], "14": ["C", 0.246113], "15": ["H", 0.0809], "16": ["H", 0.091112], "17": ["H", 0.105277], "18": ["H", 0.103857], "19": ["H", 0.097933]}, "dipole_moment": {"X": 0.2276, "Y": -1.297, "Z": 1.1126, "Tot": 1.7239}, "functional": "B3LYP", "basis": "6-31+G*", "phase": "gas", "tag": "lis", "state": "successful", "wall_time (s)": 10.947374093113467, "version": "0.0.1", "gauss_version": "ES64L-G16RevC.01", "last_updated": "2021-09-14 21:32:05.429000", "polarizability": 74.03, "fluorinated-solvent": "59684022", "run_ids": ["614114b435bd7bcf51a62833", "614114cf1b2a557801c44574"]}