{"_id": "6141174cc78a7e1afae7c13d", "molecule": {"@module": "pymatgen.core.structure", "@class": "Molecule", "charge": 0, "spin_multiplicity": 1, "sites": [{"name": "F", "species": [{"element": "F", "occu": 1}], "xyz": [1.163185, 0.139687, -0.364301], "properties": {}}, {"name": "F", "species": [{"element": "F", "occu": 1}], "xyz": [3.102716, -0.140206, -1.322078], "properties": {}}, {"name": "F", "species": [{"element": "F", "occu": 1}], "xyz": [0.560965, -1.88575, 1.563267], "properties": {}}, {"name": "F", "species": [{"element": "F", "occu": 1}], "xyz": [2.256804, -2.189675, 2.901133], "properties": {}}, {"name": "F", "species": [{"element": "F", "occu": 1}], "xyz": [1.523756, -0.182838, 2.519107], "properties": {}}, {"name": "F", "species": [{"element": "F", "occu": 1}], "xyz": [1.751658, -2.643472, -0.938764], "properties": {}}, {"name": "F", "species": [{"element": "F", "occu": 1}], "xyz": [3.928692, -2.618719, -0.786364], "properties": {}}, {"name": "F", "species": [{"element": "F", "occu": 1}], "xyz": [2.747942, -3.655204, 0.71229], "properties": {}}, {"name": "O", "species": [{"element": "O", "occu": 1}], "xyz": [2.999534, 1.066019, 0.56961], "properties": {}}, {"name": "C", "species": [{"element": "C", "occu": 1}], "xyz": [2.74583, -1.268477, 0.767304], "properties": {}}, {"name": "C", "species": [{"element": "C", "occu": 1}], "xyz": [2.505446, 0.00117, -0.086546], "properties": {}}, {"name": "C", "species": [{"element": "C", "occu": 1}], "xyz": [1.749681, -1.380666, 1.943412], "properties": {}}, {"name": "C", "species": [{"element": "C", "occu": 1}], "xyz": [2.780852, -2.559353, -0.077665], "properties": {}}, {"name": "C", "species": [{"element": "C", "occu": 1}], "xyz": [2.825622, 2.373222, -0.055613], "properties": {}}, {"name": "C", "species": [{"element": "C", "occu": 1}], "xyz": [3.2738, 3.415622, 0.955827], "properties": {}}, {"name": "C", "species": [{"element": "C", "occu": 1}], "xyz": [2.403425, 3.447685, 2.217182], "properties": {}}, {"name": "H", "species": [{"element": "H", "occu": 1}], "xyz": [3.737857, -1.163547, 1.212239], "properties": {}}, {"name": "H", "species": [{"element": "H", "occu": 1}], "xyz": [3.430936, 2.39882, -0.96735], "properties": {}}, {"name": "H", "species": [{"element": "H", "occu": 1}], "xyz": [1.769445, 2.497115, -0.316541], "properties": {}}, {"name": "H", "species": [{"element": "H", "occu": 1}], "xyz": [4.322307, 3.224216, 1.218428], "properties": {}}, {"name": "H", "species": [{"element": "H", "occu": 1}], "xyz": [3.247157, 4.390097, 0.44949], "properties": {}}, {"name": "H", "species": [{"element": "H", "occu": 1}], "xyz": [2.42559, 2.482795, 2.733592], "properties": {}}, {"name": "H", "species": [{"element": "H", "occu": 1}], "xyz": [2.754718, 4.216898, 2.913942], "properties": {}}, {"name": "H", "species": [{"element": "H", "occu": 1}], "xyz": [1.358232, 3.670691, 1.96778], "properties": {}}]}, "smiles": "FC(F)(OCCC)C(C(F)(F)F)C(F)(F)F", "inchi": "InChI=1S/C7H8F8O/c1-2-3-16-7(14,15)4(5(8,9)10)6(11,12)13/h4H,2-3H2,1H3", "formula_alphabetical": "C7 F8 H8 O1", "chemsys": "C-F-H-O", "energy": -1145.59283163, "esp": {"1": ["F", -0.208704], "2": ["F", -0.212801], "3": ["F", -0.173929], "4": ["F", -0.194199], "5": ["F", -0.186096], "6": ["F", -0.175129], "7": ["F", -0.190563], "8": ["F", -0.189489], "9": ["O", -0.301776], "10": ["C", -0.456895], "11": ["C", 0.582373], "12": ["C", 0.616755], "13": ["C", 0.62209], "14": ["C", -0.031326], "15": ["C", 0.096669], "16": ["C", -0.196729], "17": ["H", 0.216293], "18": ["H", 0.081034], "19": ["H", 0.099615], "20": ["H", 0.018386], "21": ["H", 0.009765], "22": ["H", 0.062787], "23": ["H", 0.051581], "24": ["H", 0.060289]}, "dipole_moment": {"X": 1.5313, "Y": 3.4451, "Z": 0.4076, "Tot": 3.792}, "functional": "B3LYP", "basis": "6-31+G*", "phase": "gas", "tag": "lis", "state": "successful", "wall_time (s)": 17.596034076996148, "version": "0.0.1", "gauss_version": "ES64L-G16RevC.01", "last_updated": "2021-09-14 21:42:36.494000", "polarizability": 93.11, "fluorinated-solvent": "150660852", "run_ids": ["61411723fc67f039fae5ba01", "61411742a8267f6e360ac4ab"]}