{"_id": "613a53a3123e868ce505b466", "molecule": {"@module": "pymatgen.core.structure", "@class": "Molecule", "charge": 0, "spin_multiplicity": 1, "sites": [{"name": "F", "species": [{"element": "F", "occu": 1}], "xyz": [1.344412, -0.290636, 0.666905], "properties": {}}, {"name": "F", "species": [{"element": "F", "occu": 1}], "xyz": [3.442896, -0.738849, 1.10531], "properties": {}}, {"name": "F", "species": [{"element": "F", "occu": 1}], "xyz": [1.417014, -3.459306, -3.368373], "properties": {}}, {"name": "O", "species": [{"element": "O", "occu": 1}], "xyz": [2.851738, -0.231861, -1.013035], "properties": {}}, {"name": "C", "species": [{"element": "C", "occu": 1}], "xyz": [2.898265, 1.518488, 0.595542], "properties": {}}, {"name": "C", "species": [{"element": "C", "occu": 1}], "xyz": [2.638118, 0.057627, 0.295854], "properties": {}}, {"name": "C", "species": [{"element": "C", "occu": 1}], "xyz": [2.002607, 2.476184, -0.199849], "properties": {}}, {"name": "C", "species": [{"element": "C", "occu": 1}], "xyz": [2.616134, -1.597439, -1.429307], "properties": {}}, {"name": "C", "species": [{"element": "C", "occu": 1}], "xyz": [2.93668, -1.660278, -2.915558], "properties": {}}, {"name": "C", "species": [{"element": "C", "occu": 1}], "xyz": [2.283694, 3.941201, 0.152924], "properties": {}}, {"name": "C", "species": [{"element": "C", "occu": 1}], "xyz": [2.763742, -3.057506, -3.484033], "properties": {}}, {"name": "H", "species": [{"element": "H", "occu": 1}], "xyz": [2.749486, 1.650617, 1.673119], "properties": {}}, {"name": "H", "species": [{"element": "H", "occu": 1}], "xyz": [3.95638, 1.707396, 0.381146], "properties": {}}, {"name": "H", "species": [{"element": "H", "occu": 1}], "xyz": [2.162854, 2.310591, -1.271761], "properties": {}}, {"name": "H", "species": [{"element": "H", "occu": 1}], "xyz": [0.951314, 2.238122, 0.003624], "properties": {}}, {"name": "H", "species": [{"element": "H", "occu": 1}], "xyz": [3.266335, -2.266329, -0.853486], "properties": {}}, {"name": "H", "species": [{"element": "H", "occu": 1}], "xyz": [1.572636, -1.861248, -1.237021], "properties": {}}, {"name": "H", "species": [{"element": "H", "occu": 1}], "xyz": [2.292569, -0.960505, -3.460912], "properties": {}}, {"name": "H", "species": [{"element": "H", "occu": 1}], "xyz": [3.976317, -1.345353, -3.078013], "properties": {}}, {"name": "H", "species": [{"element": "H", "occu": 1}], "xyz": [3.325829, 4.209107, -0.063947], "properties": {}}, {"name": "H", "species": [{"element": "H", "occu": 1}], "xyz": [1.638781, 4.615631, -0.422136], "properties": {}}, {"name": "H", "species": [{"element": "H", "occu": 1}], "xyz": [2.104698, 4.134983, 1.21829], "properties": {}}, {"name": "H", "species": [{"element": "H", "occu": 1}], "xyz": [3.019341, -3.090976, -4.548325], "properties": {}}, {"name": "H", "species": [{"element": "H", "occu": 1}], "xyz": [3.36316, -3.800161, -2.943408], "properties": {}}]}, "smiles": "FC(F)(OCCCF)CCC", "inchi": "InChI=1S/C7H13F3O/c1-2-4-7(9,10)11-6-3-5-8/h2-6H2,1H3", "formula_alphabetical": "C7 F3 H13 O1", "chemsys": "C-F-H-O", "energy": -649.369508706, "esp": {"1": ["F", -0.241868], "2": ["F", -0.25754], "3": ["F", -0.295967], "4": ["O", -0.408209], "5": ["C", -0.266453], "6": ["C", 0.532532], "7": ["C", 0.29901], "8": ["C", 0.254977], "9": ["C", -0.15253], "10": ["C", -0.298427], "11": ["C", 0.191543], "12": ["H", 0.100819], "13": ["H", 0.101618], "14": ["H", -0.041904], "15": ["H", -0.02704], "16": ["H", 0.040302], "17": ["H", 0.041375], "18": ["H", 0.08957], "19": ["H", 0.053657], "20": ["H", 0.066691], "21": ["H", 0.066995], "22": ["H", 0.066016], "23": ["H", 0.050786], "24": ["H", 0.034047]}, "dipole_moment": {"X": 2.0004, "Y": 1.2679, "Z": -1.5135, "Tot": 2.8107}, "functional": "B3LYP", "basis": "6-31+G*", "phase": "gas", "tag": "lis", "state": "successful", "wall_time (s)": 10.344960934948176, "version": "0.0.1", "gauss_version": "ES64L-G16RevC.01", "last_updated": "2021-09-09 18:34:11.078000", "polarizability": 89.52, "fluorinated-solvent": "54474749", "run_ids": ["613a4ac3839cec63285d1072", "613a539db6fece0284ea2b3e"]}