{"_id": "613a4ba11350d98e183b73d1", "molecule": {"@module": "pymatgen.core.structure", "@class": "Molecule", "charge": 0, "spin_multiplicity": 1, "sites": [{"name": "F", "species": [{"element": "F", "occu": 1}], "xyz": [3.340394, -0.849714, 0.722407], "properties": {}}, {"name": "F", "species": [{"element": "F", "occu": 1}], "xyz": [1.213873, -0.486723, 0.264092], "properties": {}}, {"name": "F", "species": [{"element": "F", "occu": 1}], "xyz": [2.606502, -1.628003, -1.791691], "properties": {}}, {"name": "F", "species": [{"element": "F", "occu": 1}], "xyz": [1.91856, 0.390185, -2.261239], "properties": {}}, {"name": "F", "species": [{"element": "F", "occu": 1}], "xyz": [4.024818, 0.031834, -1.807391], "properties": {}}, {"name": "O", "species": [{"element": "O", "occu": 1}], "xyz": [2.380013, 1.53027, 1.758284], "properties": {}}, {"name": "C", "species": [{"element": "C", "occu": 1}], "xyz": [2.484889, -0.061969, 0.00943], "properties": {}}, {"name": "C", "species": [{"element": "C", "occu": 1}], "xyz": [2.653745, 1.404874, 0.388212], "properties": {}}, {"name": "C", "species": [{"element": "C", "occu": 1}], "xyz": [2.762803, -0.332213, -1.49389], "properties": {}}, {"name": "C", "species": [{"element": "C", "occu": 1}], "xyz": [2.508566, 2.866152, 2.225251], "properties": {}}, {"name": "H", "species": [{"element": "H", "occu": 1}], "xyz": [3.685007, 1.70624, 0.146934], "properties": {}}, {"name": "H", "species": [{"element": "H", "occu": 1}], "xyz": [1.959844, 2.000974, -0.224759], "properties": {}}, {"name": "H", "species": [{"element": "H", "occu": 1}], "xyz": [3.533918, 3.241495, 2.083544], "properties": {}}, {"name": "H", "species": [{"element": "H", "occu": 1}], "xyz": [1.804243, 3.538208, 1.710889], "properties": {}}, {"name": "H", "species": [{"element": "H", "occu": 1}], "xyz": [2.275316, 2.845849, 3.291747], "properties": {}}]}, "smiles": "FC(F)(COC)C(F)(F)F", "inchi": "InChI=1S/C4H5F5O/c1-10-2-3(5,6)4(7,8)9/h2H2,1H3", "formula_alphabetical": "C4 F5 H5 O1", "chemsys": "C-F-H-O", "energy": -729.888294196, "esp": {"1": ["F", -0.157578], "2": ["F", -0.156378], "3": ["F", -0.128989], "4": ["F", -0.169143], "5": ["F", -0.171684], "6": ["O", -0.281214], "7": ["C", 0.214269], "8": ["C", 0.059507], "9": ["C", 0.449281], "10": ["C", -0.101957], "11": ["H", 0.088928], "12": ["H", 0.083768], "13": ["H", 0.07813], "14": ["H", 0.077444], "15": ["H", 0.115615]}, "dipole_moment": {"X": 0.5179, "Y": 3.4187, "Z": 0.3102, "Tot": 3.4716}, "functional": "B3LYP", "basis": "6-31+G*", "phase": "gas", "tag": "lis", "state": "successful", "wall_time (s)": 6.769508876022883, "version": "0.0.1", "gauss_version": "ES64L-G16RevC.01", "last_updated": "2021-09-09 18:00:00.732000", "polarizability": 57.0, "fluorinated-solvent": "2776015", "run_ids": ["613a49240e0a234a57294b1c", "613a4b344b05cbef8042235d"]}