{"_id": "613a56b2a8d63830f72433a8", "molecule": {"@module": "pymatgen.core.structure", "@class": "Molecule", "charge": 0, "spin_multiplicity": 1, "sites": [{"name": "F", "species": [{"element": "F", "occu": 1}], "xyz": [1.045622, 1.01452, -0.314839], "properties": {}}, {"name": "F", "species": [{"element": "F", "occu": 1}], "xyz": [1.761077, 2.67826, -1.52984], "properties": {}}, {"name": "F", "species": [{"element": "F", "occu": 1}], "xyz": [2.525373, 2.398572, 0.49773], "properties": {}}, {"name": "O", "species": [{"element": "O", "occu": 1}], "xyz": [2.816068, 0.181968, -2.300163], "properties": {}}, {"name": "C", "species": [{"element": "C", "occu": 1}], "xyz": [3.281969, 0.860765, -1.150629], "properties": {}}, {"name": "C", "species": [{"element": "C", "occu": 1}], "xyz": [2.951238, -1.253754, -2.298097], "properties": {}}, {"name": "C", "species": [{"element": "C", "occu": 1}], "xyz": [2.141327, 1.742746, -0.632577], "properties": {}}, {"name": "C", "species": [{"element": "C", "occu": 1}], "xyz": [4.523843, 1.68479, -1.485476], "properties": {}}, {"name": "C", "species": [{"element": "C", "occu": 1}], "xyz": [1.877856, -1.913377, -1.431634], "properties": {}}, {"name": "C", "species": [{"element": "C", "occu": 1}], "xyz": [2.864966, -1.681384, -3.757847], "properties": {}}, {"name": "H", "species": [{"element": "H", "occu": 1}], "xyz": [3.499123, 0.160101, -0.332751], "properties": {}}, {"name": "H", "species": [{"element": "H", "occu": 1}], "xyz": [3.950814, -1.506062, -1.905666], "properties": {}}, {"name": "H", "species": [{"element": "H", "occu": 1}], "xyz": [4.882113, 2.243295, -0.614764], "properties": {}}, {"name": "H", "species": [{"element": "H", "occu": 1}], "xyz": [5.315891, 1.008628, -1.822107], "properties": {}}, {"name": "H", "species": [{"element": "H", "occu": 1}], "xyz": [4.298747, 2.384924, -2.295228], "properties": {}}, {"name": "H", "species": [{"element": "H", "occu": 1}], "xyz": [0.88212, -1.660312, -1.811857], "properties": {}}, {"name": "H", "species": [{"element": "H", "occu": 1}], "xyz": [1.996021, -3.003549, -1.447193], "properties": {}}, {"name": "H", "species": [{"element": "H", "occu": 1}], "xyz": [1.934309, -1.582175, -0.389424], "properties": {}}, {"name": "H", "species": [{"element": "H", "occu": 1}], "xyz": [3.647382, -1.194017, -4.348426], "properties": {}}, {"name": "H", "species": [{"element": "H", "occu": 1}], "xyz": [2.979438, -2.767718, -3.846176], "properties": {}}, {"name": "H", "species": [{"element": "H", "occu": 1}], "xyz": [1.891744, -1.39839, -4.174824], "properties": {}}]}, "smiles": "FC(F)(F)[C@@H](OC(C)C)C", "inchi": "InChI=1S/C6H11F3O/c1-4(2)10-5(3)6(7,8)9/h4-5H,1-3H3/t5-/m0/s1", "formula_alphabetical": "C6 F3 H11 O1", "chemsys": "C-F-H-O", "energy": -610.050402546, "esp": {"1": ["F", -0.199976], "2": ["F", -0.180319], "3": ["F", -0.2212], "4": ["O", -0.520896], "5": ["C", 0.298896], "6": ["C", 0.608174], "7": ["C", 0.508667], "8": ["C", -0.421313], "9": ["C", -0.487395], "10": ["C", -0.481962], "11": ["H", 0.031639], "12": ["H", -0.039841], "13": ["H", 0.111532], "14": ["H", 0.127464], "15": ["H", 0.138058], "16": ["H", 0.141877], "17": ["H", 0.108808], "18": ["H", 0.10824], "19": ["H", 0.123179], "20": ["H", 0.109177], "21": ["H", 0.137191]}, "dipole_moment": {"X": 2.2135, "Y": -2.3493, "Z": -0.166, "Tot": 3.2321}, "functional": "B3LYP", "basis": "6-31+G*", "phase": "gas", "tag": "lis", "state": "successful", "wall_time (s)": 9.150765710044652, "version": "0.0.1", "gauss_version": "ES64L-G16RevC.01", "last_updated": "2021-09-09 18:47:14.456000", "polarizability": 78.51, "fluorinated-solvent": "20612573", "run_ids": ["613a4af43d2da98b4c45b581", "613a56abcac5501ea44d5a5d"]}