{"_id": "61412935a272ec693065e7bb", "molecule": {"@module": "pymatgen.core.structure", "@class": "Molecule", "charge": 0, "spin_multiplicity": 1, "sites": [{"name": "F", "species": [{"element": "F", "occu": 1}], "xyz": [4.547547, -0.504799, -1.097115], "properties": {}}, {"name": "F", "species": [{"element": "F", "occu": 1}], "xyz": [4.685601, -0.695794, 1.102989], "properties": {}}, {"name": "F", "species": [{"element": "F", "occu": 1}], "xyz": [0.719791, -4.325733, -2.011698], "properties": {}}, {"name": "F", "species": [{"element": "F", "occu": 1}], "xyz": [-1.028113, -2.990527, -2.252584], "properties": {}}, {"name": "O", "species": [{"element": "O", "occu": 1}], "xyz": [2.194404, -2.103386, -1.019477], "properties": {}}, {"name": "C", "species": [{"element": "C", "occu": 1}], "xyz": [2.708226, -1.394835, 0.089897], "properties": {}}, {"name": "C", "species": [{"element": "C", "occu": 1}], "xyz": [0.783206, -2.173894, -1.037114], "properties": {}}, {"name": "C", "species": [{"element": "C", "occu": 1}], "xyz": [4.225746, -1.336634, -0.039729], "properties": {}}, {"name": "C", "species": [{"element": "C", "occu": 1}], "xyz": [0.360198, -3.009548, -2.239522], "properties": {}}, {"name": "C", "species": [{"element": "C", "occu": 1}], "xyz": [4.938807, -2.655716, -0.207257], "properties": {}}, {"name": "C", "species": [{"element": "C", "occu": 1}], "xyz": [0.889381, -2.572781, -3.58329], "properties": {}}, {"name": "H", "species": [{"element": "H", "occu": 1}], "xyz": [2.455167, -1.899052, 1.0348], "properties": {}}, {"name": "H", "species": [{"element": "H", "occu": 1}], "xyz": [2.327455, -0.363333, 0.123235], "properties": {}}, {"name": "H", "species": [{"element": "H", "occu": 1}], "xyz": [0.390466, -2.655951, -0.129665], "properties": {}}, {"name": "H", "species": [{"element": "H", "occu": 1}], "xyz": [0.336854, -1.172314, -1.130496], "properties": {}}, {"name": "H", "species": [{"element": "H", "occu": 1}], "xyz": [4.578945, -3.1527, -1.110954], "properties": {}}, {"name": "H", "species": [{"element": "H", "occu": 1}], "xyz": [6.013768, -2.472458, -0.286366], "properties": {}}, {"name": "H", "species": [{"element": "H", "occu": 1}], "xyz": [4.741865, -3.296982, 0.656811], "properties": {}}, {"name": "H", "species": [{"element": "H", "occu": 1}], "xyz": [0.555455, -1.554069, -3.800869], "properties": {}}, {"name": "H", "species": [{"element": "H", "occu": 1}], "xyz": [1.981376, -2.596171, -3.57043], "properties": {}}, {"name": "H", "species": [{"element": "H", "occu": 1}], "xyz": [0.511705, -3.251266, -4.352966], "properties": {}}]}, "smiles": "FC(F)(COCC(F)(F)C)C", "inchi": "InChI=1S/C6H10F4O/c1-5(7,8)3-11-4-6(2,9)10/h3-4H2,1-2H3", "formula_alphabetical": "C6 F4 H10 O1", "chemsys": "C-F-H-O", "energy": -709.29662508, "esp": {"1": ["F", -0.266657], "2": ["F", -0.28791], "3": ["F", -0.265671], "4": ["F", -0.288478], "5": ["O", -0.183225], "6": ["C", -0.214035], "7": ["C", -0.19366], "8": ["C", 0.622158], "9": ["C", 0.610546], "10": ["C", -0.450208], "11": ["C", -0.434734], "12": ["H", 0.129134], "13": ["H", 0.132574], "14": ["H", 0.127654], "15": ["H", 0.127541], "16": ["H", 0.129198], "17": ["H", 0.155428], "18": ["H", 0.139092], "19": ["H", 0.134024], "20": ["H", 0.123653], "21": ["H", 0.153575]}, "dipole_moment": {"X": -0.2092, "Y": 0.1491, "Z": 0.2552, "Tot": 0.3622}, "functional": "B3LYP", "basis": "6-31+G*", "phase": "gas", "tag": "lis", "state": "successful", "wall_time (s)": 9.611313169938512, "version": "0.0.1", "gauss_version": "ES64L-G16RevC.01", "last_updated": "2021-09-14 22:59:01.132000", "polarizability": 78.59, "fluorinated-solvent": "142789331", "run_ids": ["61412920ec05ea0ddcc7c2cb", "614129300446a89e14efcdac"]}