{"_id": "613a54bbf63eae75605820c0", "molecule": {"@module": "pymatgen.core.structure", "@class": "Molecule", "charge": 0, "spin_multiplicity": 1, "sites": [{"name": "F", "species": [{"element": "F", "occu": 1}], "xyz": [2.524514, 1.264354, -3.070853], "properties": {}}, {"name": "F", "species": [{"element": "F", "occu": 1}], "xyz": [1.112467, 1.199844, -1.403031], "properties": {}}, {"name": "F", "species": [{"element": "F", "occu": 1}], "xyz": [2.718665, 3.458015, -1.377969], "properties": {}}, {"name": "O", "species": [{"element": "O", "occu": 1}], "xyz": [2.974544, -0.076516, -1.308333], "properties": {}}, {"name": "C", "species": [{"element": "C", "occu": 1}], "xyz": [2.393104, -1.276703, -1.891794], "properties": {}}, {"name": "C", "species": [{"element": "C", "occu": 1}], "xyz": [3.029465, -2.473543, -1.202946], "properties": {}}, {"name": "C", "species": [{"element": "C", "occu": 1}], "xyz": [2.457051, 1.10897, -1.701195], "properties": {}}, {"name": "C", "species": [{"element": "C", "occu": 1}], "xyz": [2.709041, -2.555579, 0.293641], "properties": {}}, {"name": "C", "species": [{"element": "C", "occu": 1}], "xyz": [3.228185, 2.223288, -1.003841], "properties": {}}, {"name": "H", "species": [{"element": "H", "occu": 1}], "xyz": [1.309315, -1.253387, -1.732064], "properties": {}}, {"name": "H", "species": [{"element": "H", "occu": 1}], "xyz": [2.598633, -1.27187, -2.967096], "properties": {}}, {"name": "H", "species": [{"element": "H", "occu": 1}], "xyz": [2.668144, -3.374318, -1.717624], "properties": {}}, {"name": "H", "species": [{"element": "H", "occu": 1}], "xyz": [4.115342, -2.433957, -1.359168], "properties": {}}, {"name": "H", "species": [{"element": "H", "occu": 1}], "xyz": [1.626275, -2.619334, 0.461221], "properties": {}}, {"name": "H", "species": [{"element": "H", "occu": 1}], "xyz": [3.172303, -3.440144, 0.745142], "properties": {}}, {"name": "H", "species": [{"element": "H", "occu": 1}], "xyz": [3.079177, -1.670868, 0.822129], "properties": {}}, {"name": "H", "species": [{"element": "H", "occu": 1}], "xyz": [3.121254, 2.107678, 0.078087], "properties": {}}, {"name": "H", "species": [{"element": "H", "occu": 1}], "xyz": [4.279402, 2.168281, -1.299077], "properties": {}}]}, "smiles": "FC(F)(OCCC)CF", "inchi": "InChI=1S/C5H9F3O/c1-2-3-9-5(7,8)4-6/h2-4H2,1H3", "formula_alphabetical": "C5 F3 H9 O1", "chemsys": "C-F-H-O", "energy": -570.731185921, "esp": {"1": ["F", -0.23093], "2": ["F", -0.236978], "3": ["F", -0.237064], "4": ["O", -0.422395], "5": ["C", 0.064825], "6": ["C", 0.089871], "7": ["C", 0.583094], "8": ["C", -0.151952], "9": ["C", 0.054553], "10": ["H", 0.077012], "11": ["H", 0.06282], "12": ["H", -0.006121], "13": ["H", 0.022426], "14": ["H", 0.048739], "15": ["H", 0.04002], "16": ["H", 0.041285], "17": ["H", 0.104364], "18": ["H", 0.096432]}, "dipole_moment": {"X": 1.4102, "Y": -3.0287, "Z": 1.0795, "Tot": 3.511}, "functional": "B3LYP", "basis": "6-31+G*", "phase": "gas", "tag": "lis", "state": "successful", "wall_time (s)": 7.741952675045468, "version": "0.0.1", "gauss_version": "ES64L-G16RevC.01", "last_updated": "2021-09-09 18:38:51.231000", "polarizability": 66.28, "fluorinated-solvent": "21049768", "run_ids": ["613a4ad5bc1642a571e51f40", "613a54b3a4ae626215b92f74"]}