{"_id": "61411919d6d985ce6b193150", "molecule": {"@module": "pymatgen.core.structure", "@class": "Molecule", "charge": 0, "spin_multiplicity": 1, "sites": [{"name": "F", "species": [{"element": "F", "occu": 1}], "xyz": [1.142101, 0.404084, -0.133259], "properties": {}}, {"name": "F", "species": [{"element": "F", "occu": 1}], "xyz": [3.058596, 1.4514, -0.304727], "properties": {}}, {"name": "O", "species": [{"element": "O", "occu": 1}], "xyz": [2.932044, -0.396001, 0.988032], "properties": {}}, {"name": "C", "species": [{"element": "C", "occu": 1}], "xyz": [2.878766, -0.664218, -1.37345], "properties": {}}, {"name": "C", "species": [{"element": "C", "occu": 1}], "xyz": [2.26404, -2.068934, -1.348792], "properties": {}}, {"name": "C", "species": [{"element": "C", "occu": 1}], "xyz": [2.516012, 0.176458, -0.167645], "properties": {}}, {"name": "C", "species": [{"element": "C", "occu": 1}], "xyz": [2.64224, -2.8764, -2.5957], "properties": {}}, {"name": "C", "species": [{"element": "C", "occu": 1}], "xyz": [2.639163, 0.312517, 2.219548], "properties": {}}, {"name": "C", "species": [{"element": "C", "occu": 1}], "xyz": [3.19943, -0.522913, 3.35544], "properties": {}}, {"name": "H", "species": [{"element": "H", "occu": 1}], "xyz": [2.546125, -0.108854, -2.257612], "properties": {}}, {"name": "H", "species": [{"element": "H", "occu": 1}], "xyz": [3.972811, -0.719852, -1.408589], "properties": {}}, {"name": "H", "species": [{"element": "H", "occu": 1}], "xyz": [2.601064, -2.59189, -0.446051], "properties": {}}, {"name": "H", "species": [{"element": "H", "occu": 1}], "xyz": [1.172787, -1.982934, -1.276432], "properties": {}}, {"name": "H", "species": [{"element": "H", "occu": 1}], "xyz": [3.730425, -2.995319, -2.676663], "properties": {}}, {"name": "H", "species": [{"element": "H", "occu": 1}], "xyz": [2.19808, -3.878129, -2.566438], "properties": {}}, {"name": "H", "species": [{"element": "H", "occu": 1}], "xyz": [2.292218, -2.381972, -3.51097], "properties": {}}, {"name": "H", "species": [{"element": "H", "occu": 1}], "xyz": [3.106285, 1.302135, 2.177169], "properties": {}}, {"name": "H", "species": [{"element": "H", "occu": 1}], "xyz": [1.554547, 0.435977, 2.306232], "properties": {}}, {"name": "H", "species": [{"element": "H", "occu": 1}], "xyz": [4.281665, -0.650427, 3.245816], "properties": {}}, {"name": "H", "species": [{"element": "H", "occu": 1}], "xyz": [3.002543, -0.027267, 4.313109], "properties": {}}, {"name": "H", "species": [{"element": "H", "occu": 1}], "xyz": [2.733109, -1.513753, 3.374491], "properties": {}}]}, "smiles": "FC(F)(OCC)CCC", "inchi": "InChI=1S/C6H12F2O/c1-3-5-6(7,8)9-4-2/h3-5H2,1-2H3", "formula_alphabetical": "C6 F2 H12 O1", "chemsys": "C-F-H-O", "energy": -510.817059011, "esp": {"1": ["F", -0.240684], "2": ["F", -0.250442], "3": ["O", -0.368287], "4": ["C", -0.27167], "5": ["C", 0.28721], "6": ["C", 0.486089], "7": ["C", -0.305849], "8": ["C", 0.289184], "9": ["C", -0.356958], "10": ["H", 0.110332], "11": ["H", 0.102935], "12": ["H", -0.035947], "13": ["H", -0.022469], "14": ["H", 0.071185], "15": ["H", 0.068706], "16": ["H", 0.066988], "17": ["H", 0.037132], "18": ["H", 0.026703], "19": ["H", 0.108706], "20": ["H", 0.08719], "21": ["H", 0.109945]}, "dipole_moment": {"X": 0.5096, "Y": -1.2306, "Z": 0.8593, "Tot": 1.5851}, "functional": "B3LYP", "basis": "6-31+G*", "phase": "gas", "tag": "lis", "state": "successful", "wall_time (s)": 8.582116291974671, "version": "0.0.1", "gauss_version": "ES64L-G16RevC.01", "last_updated": "2021-09-14 21:50:17.544000", "polarizability": 77.35, "fluorinated-solvent": "57838214", "run_ids": ["614118fed7e6d6eddba1d8ae", "61411913f9cd1aca1917bbef"]}