{"_id": "61412e2d29ef7ae485a9119c", "molecule": {"@module": "pymatgen.core.structure", "@class": "Molecule", "charge": 0, "spin_multiplicity": 1, "sites": [{"name": "F", "species": [{"element": "F", "occu": 1}], "xyz": [4.93277, -1.872876, 0.558286], "properties": {}}, {"name": "F", "species": [{"element": "F", "occu": 1}], "xyz": [4.27329, -0.378018, -0.921194], "properties": {}}, {"name": "F", "species": [{"element": "F", "occu": 1}], "xyz": [0.393968, -2.590637, 0.89887], "properties": {}}, {"name": "F", "species": [{"element": "F", "occu": 1}], "xyz": [0.352322, -1.33694, -0.893502], "properties": {}}, {"name": "F", "species": [{"element": "F", "occu": 1}], "xyz": [1.31097, -4.735107, -0.562462], "properties": {}}, {"name": "F", "species": [{"element": "F", "occu": 1}], "xyz": [5.971694, 0.62819, 0.975189], "properties": {}}, {"name": "F", "species": [{"element": "F", "occu": 1}], "xyz": [3.962793, 1.475845, 1.107406], "properties": {}}, {"name": "F", "species": [{"element": "F", "occu": 1}], "xyz": [4.622302, -0.005466, 2.571567], "properties": {}}, {"name": "F", "species": [{"element": "F", "occu": 1}], "xyz": [-1.290506, -4.870054, 0.169143], "properties": {}}, {"name": "F", "species": [{"element": "F", "occu": 1}], "xyz": [-2.036892, -2.906824, -0.393168], "properties": {}}, {"name": "F", "species": [{"element": "F", "occu": 1}], "xyz": [-2.512364, -4.63536, -1.620929], "properties": {}}, {"name": "O", "species": [{"element": "O", "occu": 1}], "xyz": [2.318654, -2.177075, -0.190071], "properties": {}}, {"name": "O", "species": [{"element": "O", "occu": 1}], "xyz": [-0.478681, -3.877988, -1.70061], "properties": {}}, {"name": "C", "species": [{"element": "C", "occu": 1}], "xyz": [2.688209, -1.107579, 0.687398], "properties": {}}, {"name": "C", "species": [{"element": "C", "occu": 1}], "xyz": [4.141979, -0.77978, 0.374309], "properties": {}}, {"name": "C", "species": [{"element": "C", "occu": 1}], "xyz": [0.988632, -2.406798, -0.317439], "properties": {}}, {"name": "C", "species": [{"element": "C", "occu": 1}], "xyz": [0.820542, -3.644461, -1.23259], "properties": {}}, {"name": "C", "species": [{"element": "C", "occu": 1}], "xyz": [4.697757, 0.356964, 1.274728], "properties": {}}, {"name": "C", "species": [{"element": "C", "occu": 1}], "xyz": [-1.558019, -4.069118, -0.874359], "properties": {}}, {"name": "H", "species": [{"element": "H", "occu": 1}], "xyz": [2.598262, -1.424178, 1.729838], "properties": {}}, {"name": "H", "species": [{"element": "H", "occu": 1}], "xyz": [2.074714, -0.221085, 0.505215], "properties": {}}, {"name": "H", "species": [{"element": "H", "occu": 1}], "xyz": [1.411526, -3.486225, -2.135867], "properties": {}}]}, "smiles": "FC(F)(COC(F)(F)[C@@H](F)OC(F)(F)F)C(F)(F)F", "inchi": "InChI=1S/C6H3F11O2/c7-2(19-6(15,16)17)4(10,11)18-1-3(8,9)5(12,13)14/h2H,1H2/t2-/m0/s1", "formula_alphabetical": "C6 F11 H3 O2", "chemsys": "C-F-H-O", "energy": -1479.21753183, "esp": {"1": ["F", -0.139223], "2": ["F", -0.14254], "3": ["F", -0.14302], "4": ["F", -0.154763], "5": ["F", -0.196919], "6": ["F", -0.140657], "7": ["F", -0.176838], "8": ["F", -0.175984], "9": ["F", -0.181325], "10": ["F", -0.205008], "11": ["F", -0.18852], "12": ["O", -0.270826], "13": ["O", -0.378447], "14": ["C", 0.035745], "15": ["C", 0.177788], "16": ["C", 0.298307], "17": ["C", 0.337265], "18": ["C", 0.516275], "19": ["C", 0.744685], "20": ["H", 0.126725], "21": ["H", 0.122861], "22": ["H", 0.134419]}, "dipole_moment": {"X": 0.4911, "Y": 1.1502, "Z": 0.1128, "Tot": 1.2558}, "functional": "B3LYP", "basis": "6-31+G*", "phase": "gas", "tag": "lis", "state": "successful", "wall_time (s)": 18.950785312918015, "version": "0.0.1", "gauss_version": "ES64L-G16RevC.01", "last_updated": "2021-09-14 23:20:13.479000", "polarizability": 88.75, "fluorinated-solvent": "101405685", "run_ids": ["61412e06cd337f521162ea82", "61412e26ddbe7c4c6504fe0f"]}