{"_id": "6141126ef4981bcbacbb55f9", "molecule": {"@module": "pymatgen.core.structure", "@class": "Molecule", "charge": 0, "spin_multiplicity": 1, "sites": [{"name": "F", "species": [{"element": "F", "occu": 1}], "xyz": [0.613377, 2.433011, 4.030146], "properties": {}}, {"name": "F", "species": [{"element": "F", "occu": 1}], "xyz": [0.450742, 1.078613, 2.329794], "properties": {}}, {"name": "F", "species": [{"element": "F", "occu": 1}], "xyz": [-1.085278, 2.599011, 2.663051], "properties": {}}, {"name": "O", "species": [{"element": "O", "occu": 1}], "xyz": [2.392789, 3.270991, 1.961816], "properties": {}}, {"name": "O", "species": [{"element": "O", "occu": 1}], "xyz": [4.868733, 1.47314, -0.951982], "properties": {}}, {"name": "C", "species": [{"element": "C", "occu": 1}], "xyz": [4.512114, 2.513954, 1.174192], "properties": {}}, {"name": "C", "species": [{"element": "C", "occu": 1}], "xyz": [3.01166, 2.25852, 1.151951], "properties": {}}, {"name": "C", "species": [{"element": "C", "occu": 1}], "xyz": [5.288448, 1.452696, 0.406022], "properties": {}}, {"name": "C", "species": [{"element": "C", "occu": 1}], "xyz": [0.999552, 3.37123, 1.862496], "properties": {}}, {"name": "C", "species": [{"element": "C", "occu": 1}], "xyz": [0.251102, 2.360961, 2.731916], "properties": {}}, {"name": "C", "species": [{"element": "C", "occu": 1}], "xyz": [5.54098, 0.522154, -1.757594], "properties": {}}, {"name": "H", "species": [{"element": "H", "occu": 1}], "xyz": [4.718902, 3.502409, 0.747502], "properties": {}}, {"name": "H", "species": [{"element": "H", "occu": 1}], "xyz": [4.857937, 2.524554, 2.215604], "properties": {}}, {"name": "H", "species": [{"element": "H", "occu": 1}], "xyz": [2.783078, 1.260839, 1.550495], "properties": {}}, {"name": "H", "species": [{"element": "H", "occu": 1}], "xyz": [2.625191, 2.315448, 0.125206], "properties": {}}, {"name": "H", "species": [{"element": "H", "occu": 1}], "xyz": [6.371083, 1.653472, 0.471306], "properties": {}}, {"name": "H", "species": [{"element": "H", "occu": 1}], "xyz": [5.109747, 0.451521, 0.837922], "properties": {}}, {"name": "H", "species": [{"element": "H", "occu": 1}], "xyz": [0.638624, 3.245464, 0.830652], "properties": {}}, {"name": "H", "species": [{"element": "H", "occu": 1}], "xyz": [0.714601, 4.365131, 2.220168], "properties": {}}, {"name": "H", "species": [{"element": "H", "occu": 1}], "xyz": [6.627947, 0.704503, -1.771965], "properties": {}}, {"name": "H", "species": [{"element": "H", "occu": 1}], "xyz": [5.360181, -0.505477, -1.40242], "properties": {}}, {"name": "H", "species": [{"element": "H", "occu": 1}], "xyz": [5.147221, 0.625107, -2.772088], "properties": {}}]}, "smiles": "FC(F)(F)COCCCOC", "inchi": "InChI=1S/C6H11F3O2/c1-10-3-2-4-11-5-6(7,8)9/h2-5H2,1H3", "formula_alphabetical": "C6 F3 H11 O2", "chemsys": "C-F-H-O", "energy": -685.24876537, "esp": {"1": ["F", -0.192343], "2": ["F", -0.215462], "3": ["F", -0.238058], "4": ["O", -0.402262], "5": ["O", -0.357608], "6": ["C", -0.247291], "7": ["C", 0.34001], "8": ["C", 0.204479], "9": ["C", -0.11251], "10": ["C", 0.605721], "11": ["C", -0.123475], "12": ["H", 0.09679], "13": ["H", 0.067583], "14": ["H", 0.0175], "15": ["H", -0.006961], "16": ["H", 0.032062], "17": ["H", 0.012587], "18": ["H", 0.108479], "19": ["H", 0.145117], "20": ["H", 0.076629], "21": ["H", 0.072601], "22": ["H", 0.116412]}, "dipole_moment": {"X": 2.0141, "Y": -0.3677, "Z": -1.8493, "Tot": 2.7589}, "functional": "B3LYP", "basis": "6-31+G*", "phase": "gas", "tag": "lis", "state": "successful", "wall_time (s)": 9.76488237909507, "version": "0.0.1", "gauss_version": "ES64L-G16RevC.01", "last_updated": "2021-09-14 21:21:50.444000", "polarizability": 83.79, "fluorinated-solvent": "86016670", "run_ids": ["614111a245493aa08a0e02e2", "6141120b77bc2136bc3c02e2"]}