{"_id": "61412bb9d3b75126d5b95f78", "molecule": {"@module": "pymatgen.core.structure", "@class": "Molecule", "charge": 0, "spin_multiplicity": 1, "sites": [{"name": "F", "species": [{"element": "F", "occu": 1}], "xyz": [2.934596, -0.877652, -0.770977], "properties": {}}, {"name": "F", "species": [{"element": "F", "occu": 1}], "xyz": [0.985916, -0.09385, -0.101976], "properties": {}}, {"name": "F", "species": [{"element": "F", "occu": 1}], "xyz": [3.820289, -2.117802, 3.330118], "properties": {}}, {"name": "F", "species": [{"element": "F", "occu": 1}], "xyz": [1.883512, -1.346189, 3.980817], "properties": {}}, {"name": "F", "species": [{"element": "F", "occu": 1}], "xyz": [2.422774, 1.675232, -1.621994], "properties": {}}, {"name": "F", "species": [{"element": "F", "occu": 1}], "xyz": [2.16501, 2.346775, 0.440533], "properties": {}}, {"name": "F", "species": [{"element": "F", "occu": 1}], "xyz": [4.096341, 1.569903, -0.222148], "properties": {}}, {"name": "F", "species": [{"element": "F", "occu": 1}], "xyz": [2.165838, -4.042882, 4.353779], "properties": {}}, {"name": "F", "species": [{"element": "F", "occu": 1}], "xyz": [0.623782, -3.579749, 2.880317], "properties": {}}, {"name": "F", "species": [{"element": "F", "occu": 1}], "xyz": [2.560947, -4.351443, 2.229599], "properties": {}}, {"name": "O", "species": [{"element": "O", "occu": 1}], "xyz": [2.25835, -1.638452, 1.777813], "properties": {}}, {"name": "C", "species": [{"element": "C", "occu": 1}], "xyz": [2.332161, 0.001825, 0.075573], "properties": {}}, {"name": "C", "species": [{"element": "C", "occu": 1}], "xyz": [2.706095, -0.301637, 1.520416], "properties": {}}, {"name": "C", "species": [{"element": "C", "occu": 1}], "xyz": [2.488518, -2.108684, 3.020573], "properties": {}}, {"name": "C", "species": [{"element": "C", "occu": 1}], "xyz": [2.760685, 1.432315, -0.352421], "properties": {}}, {"name": "C", "species": [{"element": "C", "occu": 1}], "xyz": [1.943154, -3.561996, 3.120648], "properties": {}}, {"name": "H", "species": [{"element": "H", "occu": 1}], "xyz": [3.790721, -0.229924, 1.637876], "properties": {}}, {"name": "H", "species": [{"element": "H", "occu": 1}], "xyz": [2.202022, 0.407378, 2.182667], "properties": {}}]}, "smiles": "FC(F)(COC(F)(F)C(F)(F)F)C(F)(F)F", "inchi": "InChI=1S/C5H2F10O/c6-2(7,3(8,9)10)1-16-5(14,15)4(11,12)13/h1H2", "formula_alphabetical": "C5 F10 H2 O1", "chemsys": "C-F-H-O", "energy": -1265.43905739, "esp": {"1": ["F", -0.146521], "2": ["F", -0.145597], "3": ["F", -0.122921], "4": ["F", -0.12446], "5": ["F", -0.130072], "6": ["F", -0.169364], "7": ["F", -0.166504], "8": ["F", -0.156404], "9": ["F", -0.158864], "10": ["F", -0.158265], "11": ["O", -0.188318], "12": ["C", 0.212852], "13": ["C", 0.015842], "14": ["C", 0.162769], "15": ["C", 0.47313], "16": ["C", 0.544482], "17": ["H", 0.126219], "18": ["H", 0.131998]}, "dipole_moment": {"X": 0.8009, "Y": 1.4723, "Z": 0.6012, "Tot": 1.7806}, "functional": "B3LYP", "basis": "6-31+G*", "phase": "gas", "tag": "lis", "state": "successful", "wall_time (s)": 13.537010783096775, "version": "0.0.1", "gauss_version": "ES64L-G16RevC.01", "last_updated": "2021-09-14 23:09:44.874000", "polarizability": 72.3, "fluorinated-solvent": "86175974", "run_ids": ["61412b9d5ae373dc6aa9e5be", "61412bb24aec3b4a8c605bc9"]}