{"_id": "6141299da62f0f54da8cf25b", "molecule": {"@module": "pymatgen.core.structure", "@class": "Molecule", "charge": 0, "spin_multiplicity": 1, "sites": [{"name": "F", "species": [{"element": "F", "occu": 1}], "xyz": [1.168656, 0.108342, -0.137404], "properties": {}}, {"name": "F", "species": [{"element": "F", "occu": 1}], "xyz": [3.134573, 0.373155, -1.11711], "properties": {}}, {"name": "F", "species": [{"element": "F", "occu": 1}], "xyz": [2.876419, 0.033624, 5.090251], "properties": {}}, {"name": "F", "species": [{"element": "F", "occu": 1}], "xyz": [2.204509, 2.075304, 5.63164], "properties": {}}, {"name": "O", "species": [{"element": "O", "occu": 1}], "xyz": [2.42028, 0.703426, 2.358319], "properties": {}}, {"name": "C", "species": [{"element": "C", "occu": 1}], "xyz": [2.530705, 0.010251, 0.079591], "properties": {}}, {"name": "C", "species": [{"element": "C", "occu": 1}], "xyz": [2.939901, 1.070631, 1.095373], "properties": {}}, {"name": "C", "species": [{"element": "C", "occu": 1}], "xyz": [2.675835, 1.655126, 3.369953], "properties": {}}, {"name": "C", "species": [{"element": "C", "occu": 1}], "xyz": [2.88192, -1.41779, 0.416572], "properties": {}}, {"name": "C", "species": [{"element": "C", "occu": 1}], "xyz": [2.120162, 1.097372, 4.666157], "properties": {}}, {"name": "H", "species": [{"element": "H", "occu": 1}], "xyz": [4.038478, 1.127296, 1.121484], "properties": {}}, {"name": "H", "species": [{"element": "H", "occu": 1}], "xyz": [2.540048, 2.038622, 0.759393], "properties": {}}, {"name": "H", "species": [{"element": "H", "occu": 1}], "xyz": [3.753982, 1.836228, 3.49936], "properties": {}}, {"name": "H", "species": [{"element": "H", "occu": 1}], "xyz": [2.176033, 2.612056, 3.155117], "properties": {}}, {"name": "H", "species": [{"element": "H", "occu": 1}], "xyz": [2.396588, -1.701577, 1.353108], "properties": {}}, {"name": "H", "species": [{"element": "H", "occu": 1}], "xyz": [2.539113, -2.069007, -0.391982], "properties": {}}, {"name": "H", "species": [{"element": "H", "occu": 1}], "xyz": [3.965426, -1.517617, 0.529227], "properties": {}}, {"name": "H", "species": [{"element": "H", "occu": 1}], "xyz": [1.080581, 0.765427, 4.593151], "properties": {}}]}, "smiles": "FC(F)(COCC(F)F)C", "inchi": "InChI=1S/C5H8F4O/c1-5(8,9)3-10-2-4(6)7/h4H,2-3H2,1H3", "formula_alphabetical": "C5 F4 H8 O1", "chemsys": "C-F-H-O", "energy": -669.971264112, "esp": {"1": ["F", -0.274524], "2": ["F", -0.30914], "3": ["F", -0.243631], "4": ["F", -0.269761], "5": ["O", -0.319813], "6": ["C", 0.630798], "7": ["C", -0.029087], "8": ["C", -0.123106], "9": ["C", -0.382187], "10": ["C", 0.472014], "11": ["H", 0.080279], "12": ["H", 0.08988], "13": ["H", 0.134032], "14": ["H", 0.109199], "15": ["H", 0.105602], "16": ["H", 0.136598], "17": ["H", 0.121585], "18": ["H", 0.071263]}, "dipole_moment": {"X": 0.7894, "Y": 0.4836, "Z": -0.1405, "Tot": 0.9364}, "functional": "B3LYP", "basis": "6-31+G*", "phase": "gas", "tag": "lis", "state": "successful", "wall_time (s)": 7.722863832022995, "version": "0.0.1", "gauss_version": "ES64L-G16RevC.01", "last_updated": "2021-09-14 23:00:44.899000", "polarizability": 67.37, "fluorinated-solvent": "88594667", "run_ids": ["614129820f3117fa0c6c2798", "6141299586707ddeb4fd3528"]}