{"_id": "613a4ba6f6f97b4512023742", "molecule": {"@module": "pymatgen.core.structure", "@class": "Molecule", "charge": 0, "spin_multiplicity": 1, "sites": [{"name": "F", "species": [{"element": "F", "occu": 1}], "xyz": [3.007738, 0.065666, -1.350593], "properties": {}}, {"name": "F", "species": [{"element": "F", "occu": 1}], "xyz": [3.177596, -1.186094, 0.465189], "properties": {}}, {"name": "O", "species": [{"element": "O", "occu": 1}], "xyz": [2.333995, 1.09557, 1.996412], "properties": {}}, {"name": "C", "species": [{"element": "C", "occu": 1}], "xyz": [2.508622, -0.09625, -0.062692], "properties": {}}, {"name": "C", "species": [{"element": "C", "occu": 1}], "xyz": [2.911966, 1.152545, 0.711928], "properties": {}}, {"name": "C", "species": [{"element": "C", "occu": 1}], "xyz": [1.032557, -0.403223, -0.126146], "properties": {}}, {"name": "C", "species": [{"element": "C", "occu": 1}], "xyz": [2.724384, 2.175229, 2.841544], "properties": {}}, {"name": "C", "species": [{"element": "C", "occu": 1}], "xyz": [2.033159, 2.002376, 4.183166], "properties": {}}, {"name": "H", "species": [{"element": "H", "occu": 1}], "xyz": [4.011351, 1.180985, 0.759272], "properties": {}}, {"name": "H", "species": [{"element": "H", "occu": 1}], "xyz": [2.561338, 2.035395, 0.153684], "properties": {}}, {"name": "H", "species": [{"element": "H", "occu": 1}], "xyz": [0.500051, 0.428232, -0.597341], "properties": {}}, {"name": "H", "species": [{"element": "H", "occu": 1}], "xyz": [0.881491, -1.312074, -0.715035], "properties": {}}, {"name": "H", "species": [{"element": "H", "occu": 1}], "xyz": [0.649271, -0.547414, 0.886433], "properties": {}}, {"name": "H", "species": [{"element": "H", "occu": 1}], "xyz": [3.820442, 2.172623, 2.961369], "properties": {}}, {"name": "H", "species": [{"element": "H", "occu": 1}], "xyz": [2.441075, 3.133474, 2.373934], "properties": {}}, {"name": "H", "species": [{"element": "H", "occu": 1}], "xyz": [2.319702, 1.04949, 4.640619], "properties": {}}, {"name": "H", "species": [{"element": "H", "occu": 1}], "xyz": [2.314807, 2.815401, 4.862452], "properties": {}}, {"name": "H", "species": [{"element": "H", "occu": 1}], "xyz": [0.944924, 2.013049, 4.058845], "properties": {}}]}, "smiles": "FC(F)(COCC)C", "inchi": "InChI=1S/C5H10F2O/c1-3-8-4-5(2,6)7/h3-4H2,1-2H3", "formula_alphabetical": "C5 F2 H10 O1", "chemsys": "C-F-H-O", "energy": -471.485779352, "esp": {"1": ["F", -0.317047], "2": ["F", -0.282765], "3": ["O", -0.336463], "4": ["C", 0.693662], "5": ["C", -0.138788], "6": ["C", -0.438221], "7": ["C", 0.270817], "8": ["C", -0.317483], "9": ["H", 0.097792], "10": ["H", 0.089483], "11": ["H", 0.132022], "12": ["H", 0.142272], "13": ["H", 0.117777], "14": ["H", 0.013616], "15": ["H", 0.002305], "16": ["H", 0.094771], "17": ["H", 0.081974], "18": ["H", 0.094277]}, "dipole_moment": {"X": -1.0485, "Y": 2.4018, "Z": 1.2419, "Tot": 2.9}, "functional": "B3LYP", "basis": "6-31+G*", "phase": "gas", "tag": "lis", "state": "successful", "wall_time (s)": 6.74698417505715, "version": "0.0.1", "gauss_version": "ES64L-G16RevC.01", "last_updated": "2021-09-09 18:00:06.284000", "polarizability": 66.31, "fluorinated-solvent": "19782057", "run_ids": ["613a49240a37a7ed37776c89", "613a4b369a967ce7d53f8eeb"]}