{"_id": "61410ecc402efa4d7a61d14a", "molecule": {"@module": "pymatgen.core.structure", "@class": "Molecule", "charge": 0, "spin_multiplicity": 1, "sites": [{"name": "F", "species": [{"element": "F", "occu": 1}], "xyz": [4.877038, 1.096756, 0.472137], "properties": {}}, {"name": "F", "species": [{"element": "F", "occu": 1}], "xyz": [4.221681, -0.73674, 1.462933], "properties": {}}, {"name": "F", "species": [{"element": "F", "occu": 1}], "xyz": [4.602459, 1.058784, 2.63674], "properties": {}}, {"name": "O", "species": [{"element": "O", "occu": 1}], "xyz": [0.983268, 2.557287, 0.70259], "properties": {}}, {"name": "C", "species": [{"element": "C", "occu": 1}], "xyz": [2.37349, 2.498411, 1.026573], "properties": {}}, {"name": "C", "species": [{"element": "C", "occu": 1}], "xyz": [2.631143, 1.003641, 1.271554], "properties": {}}, {"name": "C", "species": [{"element": "C", "occu": 1}], "xyz": [0.572971, 3.709382, -0.029816], "properties": {}}, {"name": "C", "species": [{"element": "C", "occu": 1}], "xyz": [2.710348, 3.389922, 2.22382], "properties": {}}, {"name": "C", "species": [{"element": "C", "occu": 1}], "xyz": [-0.919265, 3.591563, -0.316736], "properties": {}}, {"name": "C", "species": [{"element": "C", "occu": 1}], "xyz": [4.07908, 0.614248, 1.463346], "properties": {}}, {"name": "C", "species": [{"element": "C", "occu": 1}], "xyz": [-1.777, 3.589335, 0.953623], "properties": {}}, {"name": "H", "species": [{"element": "H", "occu": 1}], "xyz": [2.961513, 2.817216, 0.150965], "properties": {}}, {"name": "H", "species": [{"element": "H", "occu": 1}], "xyz": [2.262657, 0.442041, 0.408198], "properties": {}}, {"name": "H", "species": [{"element": "H", "occu": 1}], "xyz": [2.075304, 0.665621, 2.152183], "properties": {}}, {"name": "H", "species": [{"element": "H", "occu": 1}], "xyz": [0.772299, 4.627113, 0.546456], "properties": {}}, {"name": "H", "species": [{"element": "H", "occu": 1}], "xyz": [1.145999, 3.770942, -0.970224], "properties": {}}, {"name": "H", "species": [{"element": "H", "occu": 1}], "xyz": [3.780423, 3.36141, 2.44913], "properties": {}}, {"name": "H", "species": [{"element": "H", "occu": 1}], "xyz": [2.438199, 4.430087, 2.019019], "properties": {}}, {"name": "H", "species": [{"element": "H", "occu": 1}], "xyz": [2.158042, 3.056689, 3.109821], "properties": {}}, {"name": "H", "species": [{"element": "H", "occu": 1}], "xyz": [-1.204591, 4.43186, -0.964826], "properties": {}}, {"name": "H", "species": [{"element": "H", "occu": 1}], "xyz": [-1.092144, 2.671717, -0.890671], "properties": {}}, {"name": "H", "species": [{"element": "H", "occu": 1}], "xyz": [-1.62837, 4.51254, 1.529289], "properties": {}}, {"name": "H", "species": [{"element": "H", "occu": 1}], "xyz": [-2.843097, 3.514179, 0.709412], "properties": {}}, {"name": "H", "species": [{"element": "H", "occu": 1}], "xyz": [-1.512378, 2.7451, 1.598303], "properties": {}}]}, "smiles": "FC(F)(F)C[C@@H](OCCC)C", "inchi": "InChI=1S/C7H13F3O/c1-3-4-11-6(2)5-7(8,9)10/h6H,3-5H2,1-2H3/t6-/m0/s1", "formula_alphabetical": "C7 F3 H13 O1", "chemsys": "C-F-H-O", "energy": -649.365410651, "esp": {"1": ["F", -0.242638], "2": ["F", -0.237363], "3": ["F", -0.233359], "4": ["O", -0.423262], "5": ["C", 0.541367], "6": ["C", -0.522995], "7": ["C", 0.058408], "8": ["C", -0.525904], "9": ["C", 0.125775], "10": ["C", 0.722105], "11": ["C", -0.164941], "12": ["H", -0.00125], "13": ["H", 0.161013], "14": ["H", 0.172316], "15": ["H", 0.041088], "16": ["H", 0.014826], "17": ["H", 0.131475], "18": ["H", 0.127219], "19": ["H", 0.149693], "20": ["H", -0.018493], "21": ["H", 0.002709], "22": ["H", 0.042539], "23": ["H", 0.038736], "24": ["H", 0.040935]}, "dipole_moment": {"X": -1.7239, "Y": 1.8777, "Z": -0.6742, "Tot": 2.6367}, "functional": "B3LYP", "basis": "6-31+G*", "phase": "gas", "tag": "lis", "state": "successful", "wall_time (s)": 10.47924488701392, "version": "0.0.1", "gauss_version": "ES64L-G16RevC.01", "last_updated": "2021-09-14 21:06:20.418000", "polarizability": 90.04, "fluorinated-solvent": "57294105", "run_ids": ["61410e636d44e542a9992c53", "61410e9f7c097e8fa05e5a4c"]}