{"_id": "614123bc657e9a223581910f", "molecule": {"@module": "pymatgen.core.structure", "@class": "Molecule", "charge": 0, "spin_multiplicity": 1, "sites": [{"name": "F", "species": [{"element": "F", "occu": 1}], "xyz": [5.017233, -1.645018, 1.67235], "properties": {}}, {"name": "F", "species": [{"element": "F", "occu": 1}], "xyz": [4.595788, 0.246106, 0.667155], "properties": {}}, {"name": "F", "species": [{"element": "F", "occu": 1}], "xyz": [4.556119, -1.622823, -0.462453], "properties": {}}, {"name": "F", "species": [{"element": "F", "occu": 1}], "xyz": [0.988648, -0.907024, 4.760706], "properties": {}}, {"name": "F", "species": [{"element": "F", "occu": 1}], "xyz": [0.568242, 0.991234, 3.755048], "properties": {}}, {"name": "O", "species": [{"element": "O", "occu": 1}], "xyz": [0.955473, -0.847243, 2.505179], "properties": {}}, {"name": "C", "species": [{"element": "C", "occu": 1}], "xyz": [2.761454, -1.228548, 1.031703], "properties": {}}, {"name": "C", "species": [{"element": "C", "occu": 1}], "xyz": [2.371896, -0.605948, 2.367453], "properties": {}}, {"name": "C", "species": [{"element": "C", "occu": 1}], "xyz": [4.233061, -1.061952, 0.728197], "properties": {}}, {"name": "C", "species": [{"element": "C", "occu": 1}], "xyz": [0.366428, -0.376685, 3.639611], "properties": {}}, {"name": "C", "species": [{"element": "C", "occu": 1}], "xyz": [-1.106947, -0.692215, 3.659976], "properties": {}}, {"name": "H", "species": [{"element": "H", "occu": 1}], "xyz": [2.198175, -0.763493, 0.217135], "properties": {}}, {"name": "H", "species": [{"element": "H", "occu": 1}], "xyz": [2.540362, -2.300084, 1.033083], "properties": {}}, {"name": "H", "species": [{"element": "H", "occu": 1}], "xyz": [2.907393, -1.075767, 3.197482], "properties": {}}, {"name": "H", "species": [{"element": "H", "occu": 1}], "xyz": [2.564059, 0.47082, 2.376471], "properties": {}}, {"name": "H", "species": [{"element": "H", "occu": 1}], "xyz": [-1.588899, -0.226669, 2.797196], "properties": {}}, {"name": "H", "species": [{"element": "H", "occu": 1}], "xyz": [-1.246015, -1.774912, 3.617242], "properties": {}}, {"name": "H", "species": [{"element": "H", "occu": 1}], "xyz": [-1.542229, -0.30034, 4.581854], "properties": {}}]}, "smiles": "FC(F)(F)CCOC(F)(F)C", "inchi": "InChI=1S/C5H7F5O/c1-4(6,7)11-3-2-5(8,9)10/h2-3H2,1H3", "formula_alphabetical": "C5 F5 H7 O1", "chemsys": "C-F-H-O", "energy": -769.24789739, "esp": {"1": ["F", -0.214891], "2": ["F", -0.216189], "3": ["F", -0.215172], "4": ["F", -0.279741], "5": ["F", -0.280738], "6": ["O", -0.450746], "7": ["C", -0.322574], "8": ["C", 0.306166], "9": ["C", 0.610529], "10": ["C", 0.765877], "11": ["C", -0.540068], "12": ["H", 0.137546], "13": ["H", 0.138374], "14": ["H", 0.027685], "15": ["H", 0.030283], "16": ["H", 0.166176], "17": ["H", 0.165474], "18": ["H", 0.172008]}, "dipole_moment": {"X": -2.5877, "Y": -0.8016, "Z": -0.4284, "Tot": 2.7427}, "functional": "B3LYP", "basis": "6-31+G*", "phase": "gas", "tag": "lis", "state": "successful", "wall_time (s)": 9.183352146064863, "version": "0.0.1", "gauss_version": "ES64L-G16RevC.01", "last_updated": "2021-09-14 22:35:40.300000", "polarizability": 67.63, "fluorinated-solvent": "88558539", "run_ids": ["614123a04dc4488317ca917a", "614123b06da1d85945019ecb"]}