{"_id": "6141193698c9db4d7245e2b8", "molecule": {"@module": "pymatgen.core.structure", "@class": "Molecule", "charge": 0, "spin_multiplicity": 1, "sites": [{"name": "F", "species": [{"element": "F", "occu": 1}], "xyz": [4.723228, -0.245174, -1.308203], "properties": {}}, {"name": "F", "species": [{"element": "F", "occu": 1}], "xyz": [4.894019, -1.511068, -3.105812], "properties": {}}, {"name": "F", "species": [{"element": "F", "occu": 1}], "xyz": [6.408728, 0.760691, -3.209475], "properties": {}}, {"name": "F", "species": [{"element": "F", "occu": 1}], "xyz": [4.80776, 0.751016, -4.693921], "properties": {}}, {"name": "F", "species": [{"element": "F", "occu": 1}], "xyz": [4.639118, 2.004674, -2.913239], "properties": {}}, {"name": "O", "species": [{"element": "O", "occu": 1}], "xyz": [2.333336, -1.405369, -2.071069], "properties": {}}, {"name": "C", "species": [{"element": "C", "occu": 1}], "xyz": [0.445365, -2.707152, -1.333862], "properties": {}}, {"name": "C", "species": [{"element": "C", "occu": 1}], "xyz": [0.909184, -1.494713, -2.142117], "properties": {}}, {"name": "C", "species": [{"element": "C", "occu": 1}], "xyz": [2.857456, -0.320915, -2.7848], "properties": {}}, {"name": "C", "species": [{"element": "C", "occu": 1}], "xyz": [4.372845, -0.345775, -2.623299], "properties": {}}, {"name": "C", "species": [{"element": "C", "occu": 1}], "xyz": [0.99987, -4.014202, -1.920577], "properties": {}}, {"name": "C", "species": [{"element": "C", "occu": 1}], "xyz": [0.80508, -2.557871, 0.152206], "properties": {}}, {"name": "C", "species": [{"element": "C", "occu": 1}], "xyz": [5.080806, 0.814355, -3.373014], "properties": {}}, {"name": "H", "species": [{"element": "H", "occu": 1}], "xyz": [-0.651606, -2.720768, -1.42737], "properties": {}}, {"name": "H", "species": [{"element": "H", "occu": 1}], "xyz": [0.46344, -0.569209, -1.739825], "properties": {}}, {"name": "H", "species": [{"element": "H", "occu": 1}], "xyz": [0.600228, -1.592722, -3.196644], "properties": {}}, {"name": "H", "species": [{"element": "H", "occu": 1}], "xyz": [2.486316, 0.642421, -2.401361], "properties": {}}, {"name": "H", "species": [{"element": "H", "occu": 1}], "xyz": [2.624812, -0.384163, -3.859353], "properties": {}}, {"name": "H", "species": [{"element": "H", "occu": 1}], "xyz": [2.093408, -4.029812, -1.860342], "properties": {}}, {"name": "H", "species": [{"element": "H", "occu": 1}], "xyz": [0.61411, -4.880101, -1.369683], "properties": {}}, {"name": "H", "species": [{"element": "H", "occu": 1}], "xyz": [0.717233, -4.131064, -2.974607], "properties": {}}, {"name": "H", "species": [{"element": "H", "occu": 1}], "xyz": [0.384054, -1.636714, 0.574967], "properties": {}}, {"name": "H", "species": [{"element": "H", "occu": 1}], "xyz": [0.416218, -3.403637, 0.73147], "properties": {}}, {"name": "H", "species": [{"element": "H", "occu": 1}], "xyz": [1.891932, -2.523926, 0.283767], "properties": {}}]}, "smiles": "FC(F)(COCC(C)C)C(F)(F)F", "inchi": "InChI=1S/C7H11F5O/c1-5(2)3-13-4-6(8,9)7(10,11)12/h5H,3-4H2,1-2H3", "formula_alphabetical": "C7 F5 H11 O1", "chemsys": "C-F-H-O", "energy": -847.837803344, "esp": {"1": ["F", -0.150932], "2": ["F", -0.149565], "3": ["F", -0.146796], "4": ["F", -0.178938], "5": ["F", -0.177223], "6": ["O", -0.167443], "7": ["C", 0.392267], "8": ["C", -0.109165], "9": ["C", -0.103587], "10": ["C", 0.184399], "11": ["C", -0.338616], "12": ["C", -0.302416], "13": ["C", 0.510644], "14": ["H", -0.055501], "15": ["H", 0.059883], "16": ["H", 0.0621], "17": ["H", 0.118966], "18": ["H", 0.120709], "19": ["H", 0.079242], "20": ["H", 0.079272], "21": ["H", 0.071064], "22": ["H", 0.062329], "23": ["H", 0.069308], "24": ["H", 0.069998]}, "dipole_moment": {"X": -3.2653, "Y": 0.2524, "Z": -0.4869, "Tot": 3.311}, "functional": "B3LYP", "basis": "6-31+G*", "phase": "gas", "tag": "lis", "state": "successful", "wall_time (s)": 12.428662283928134, "version": "0.0.1", "gauss_version": "ES64L-G16RevC.01", "last_updated": "2021-09-14 21:50:46.420000", "polarizability": 92.14, "fluorinated-solvent": "91445104", "run_ids": ["6141191776cadbd1d80e19c7", "6141192cc0767326d38b4fb8"]}