{"_id": "6141216999def587c2fa8fc6", "molecule": {"@module": "pymatgen.core.structure", "@class": "Molecule", "charge": 0, "spin_multiplicity": 1, "sites": [{"name": "F", "species": [{"element": "F", "occu": 1}], "xyz": [2.833092, 1.605588, -2.942433], "properties": {}}, {"name": "F", "species": [{"element": "F", "occu": 1}], "xyz": [1.178673, 1.661548, -1.50871], "properties": {}}, {"name": "F", "species": [{"element": "F", "occu": 1}], "xyz": [0.46534, -3.774641, -0.18209], "properties": {}}, {"name": "F", "species": [{"element": "F", "occu": 1}], "xyz": [0.887585, -3.007925, 1.819435], "properties": {}}, {"name": "F", "species": [{"element": "F", "occu": 1}], "xyz": [0.17044, -1.659007, 0.262278], "properties": {}}, {"name": "O", "species": [{"element": "O", "occu": 1}], "xyz": [2.819943, 0.138623, -1.229023], "properties": {}}, {"name": "C", "species": [{"element": "C", "occu": 1}], "xyz": [2.65491, -2.237868, -1.399342], "properties": {}}, {"name": "C", "species": [{"element": "C", "occu": 1}], "xyz": [2.139891, -0.915739, -1.953483], "properties": {}}, {"name": "C", "species": [{"element": "C", "occu": 1}], "xyz": [2.426225, -2.448188, 0.106378], "properties": {}}, {"name": "C", "species": [{"element": "C", "occu": 1}], "xyz": [2.541579, 1.416639, -1.59467], "properties": {}}, {"name": "C", "species": [{"element": "C", "occu": 1}], "xyz": [3.297895, 2.418209, -0.746712], "properties": {}}, {"name": "C", "species": [{"element": "C", "occu": 1}], "xyz": [0.989504, -2.717698, 0.496476], "properties": {}}, {"name": "C", "species": [{"element": "C", "occu": 1}], "xyz": [4.818116, 2.259828, -0.841569], "properties": {}}, {"name": "H", "species": [{"element": "H", "occu": 1}], "xyz": [2.192521, -3.05438, -1.966571], "properties": {}}, {"name": "H", "species": [{"element": "H", "occu": 1}], "xyz": [3.734265, -2.291525, -1.58336], "properties": {}}, {"name": "H", "species": [{"element": "H", "occu": 1}], "xyz": [1.061587, -0.802229, -1.818296], "properties": {}}, {"name": "H", "species": [{"element": "H", "occu": 1}], "xyz": [2.379768, -0.830915, -3.018195], "properties": {}}, {"name": "H", "species": [{"element": "H", "occu": 1}], "xyz": [3.00056, -3.313422, 0.453043], "properties": {}}, {"name": "H", "species": [{"element": "H", "occu": 1}], "xyz": [2.760144, -1.575267, 0.674823], "properties": {}}, {"name": "H", "species": [{"element": "H", "occu": 1}], "xyz": [2.982579, 3.411789, -1.081572], "properties": {}}, {"name": "H", "species": [{"element": "H", "occu": 1}], "xyz": [2.950252, 2.289037, 0.283837], "properties": {}}, {"name": "H", "species": [{"element": "H", "occu": 1}], "xyz": [5.161433, 2.384503, -1.873818], "properties": {}}, {"name": "H", "species": [{"element": "H", "occu": 1}], "xyz": [5.31376, 3.015911, -0.223321], "properties": {}}, {"name": "H", "species": [{"element": "H", "occu": 1}], "xyz": [5.131988, 1.271026, -0.492607], "properties": {}}]}, "smiles": "FC(F)(OCCCC(F)(F)F)CC", "inchi": "InChI=1S/C7H11F5O/c1-2-7(11,12)13-5-3-4-6(8,9)10/h2-5H2,1H3", "formula_alphabetical": "C7 F5 H11 O1", "chemsys": "C-F-H-O", "energy": -847.878188956, "esp": {"1": ["F", -0.224333], "2": ["F", -0.247349], "3": ["F", -0.209745], "4": ["F", -0.223645], "5": ["F", -0.194318], "6": ["O", -0.274762], "7": ["C", -0.105178], "8": ["C", 0.067201], "9": ["C", -0.172114], "10": ["C", 0.436221], "11": ["C", -0.04743], "12": ["C", 0.56577], "13": ["C", -0.137067], "14": ["H", 0.06339], "15": ["H", 0.080585], "16": ["H", 0.091268], "17": ["H", 0.068085], "18": ["H", 0.100981], "19": ["H", 0.090841], "20": ["H", 0.069211], "21": ["H", 0.060258], "22": ["H", 0.052925], "23": ["H", 0.052353], "24": ["H", 0.036851]}, "dipole_moment": {"X": 3.0748, "Y": -0.2577, "Z": -0.0552, "Tot": 3.0861}, "functional": "B3LYP", "basis": "6-31+G*", "phase": "gas", "tag": "lis", "state": "successful", "wall_time (s)": 12.720517440931872, "version": "0.0.1", "gauss_version": "ES64L-G16RevC.01", "last_updated": "2021-09-14 22:25:45.461000", "polarizability": 89.69, "fluorinated-solvent": "88900240", "run_ids": ["6141214d92dfb574515d06a3", "614121619a10ff960224c8d5"]}