{"_id": "61410c4b7da55d435904754d", "molecule": {"@module": "pymatgen.core.structure", "@class": "Molecule", "charge": 0, "spin_multiplicity": 1, "sites": [{"name": "F", "species": [{"element": "F", "occu": 1}], "xyz": [4.927003, -0.053318, 0.693375], "properties": {}}, {"name": "F", "species": [{"element": "F", "occu": 1}], "xyz": [4.498516, -1.212389, -1.107367], "properties": {}}, {"name": "F", "species": [{"element": "F", "occu": 1}], "xyz": [4.93071, -2.234722, 0.77328], "properties": {}}, {"name": "F", "species": [{"element": "F", "occu": 1}], "xyz": [2.098049, -2.243615, 4.85035], "properties": {}}, {"name": "O", "species": [{"element": "O", "occu": 1}], "xyz": [1.128187, -1.09013, 2.20892], "properties": {}}, {"name": "C", "species": [{"element": "C", "occu": 1}], "xyz": [2.817491, -1.153273, 0.562774], "properties": {}}, {"name": "C", "species": [{"element": "C", "occu": 1}], "xyz": [2.547415, -1.092477, 2.064027], "properties": {}}, {"name": "C", "species": [{"element": "C", "occu": 1}], "xyz": [4.29123, -1.164191, 0.232898], "properties": {}}, {"name": "C", "species": [{"element": "C", "occu": 1}], "xyz": [0.653208, -0.847559, 3.523369], "properties": {}}, {"name": "C", "species": [{"element": "C", "occu": 1}], "xyz": [0.760556, -2.041944, 4.453465], "properties": {}}, {"name": "H", "species": [{"element": "H", "occu": 1}], "xyz": [2.369044, -0.289261, 0.063164], "properties": {}}, {"name": "H", "species": [{"element": "H", "occu": 1}], "xyz": [2.374454, -2.05932, 0.138172], "properties": {}}, {"name": "H", "species": [{"element": "H", "occu": 1}], "xyz": [2.994735, -1.951224, 2.57774], "properties": {}}, {"name": "H", "species": [{"element": "H", "occu": 1}], "xyz": [2.973605, -0.175683, 2.498042], "properties": {}}, {"name": "H", "species": [{"element": "H", "occu": 1}], "xyz": [1.168706, 0.016012, 3.973689], "properties": {}}, {"name": "H", "species": [{"element": "H", "occu": 1}], "xyz": [-0.408256, -0.595458, 3.412108], "properties": {}}, {"name": "H", "species": [{"element": "H", "occu": 1}], "xyz": [0.174834, -1.87383, 5.365235], "properties": {}}, {"name": "H", "species": [{"element": "H", "occu": 1}], "xyz": [0.426903, -2.958428, 3.955209], "properties": {}}]}, "smiles": "FC(F)(F)CCOCCF", "inchi": "InChI=1S/C5H8F4O/c6-2-4-10-3-1-5(7,8)9/h1-4H2", "formula_alphabetical": "C5 F4 H8 O1", "chemsys": "C-F-H-O", "energy": -669.97069416, "esp": {"1": ["F", -0.238446], "2": ["F", -0.229232], "3": ["F", -0.237072], "4": ["F", -0.290042], "5": ["O", -0.449262], "6": ["C", -0.430071], "7": ["C", 0.395126], "8": ["C", 0.688618], "9": ["C", 0.05273], "10": ["C", 0.153683], "11": ["H", 0.150401], "12": ["H", 0.151309], "13": ["H", 0.01886], "14": ["H", -0.003203], "15": ["H", 0.071488], "16": ["H", 0.070483], "17": ["H", 0.046004], "18": ["H", 0.078626]}, "dipole_moment": {"X": -3.4558, "Y": 0.5496, "Z": 1.2561, "Tot": 3.7178}, "functional": "B3LYP", "basis": "6-31+G*", "phase": "gas", "tag": "lis", "state": "successful", "wall_time (s)": 7.765939982957207, "version": "0.0.1", "gauss_version": "ES64L-G16RevC.01", "last_updated": "2021-09-14 20:55:39.584000", "polarizability": 67.34, "fluorinated-solvent": "88850875", "run_ids": ["61410be0efddd90de9ad8df9", "61410c396e9f0802effc171e"]}