{"_id": "61411d10c624385d28a94f07", "molecule": {"@module": "pymatgen.core.structure", "@class": "Molecule", "charge": 0, "spin_multiplicity": 1, "sites": [{"name": "F", "species": [{"element": "F", "occu": 1}], "xyz": [3.29461, -0.737028, 0.878921], "properties": {}}, {"name": "F", "species": [{"element": "F", "occu": 1}], "xyz": [1.639498, 0.55294, 0.281403], "properties": {}}, {"name": "F", "species": [{"element": "F", "occu": 1}], "xyz": [3.6921, 1.27546, 0.127969], "properties": {}}, {"name": "F", "species": [{"element": "F", "occu": 1}], "xyz": [-1.540601, -1.562077, -3.383075], "properties": {}}, {"name": "F", "species": [{"element": "F", "occu": 1}], "xyz": [-1.525642, 0.067668, -1.920716], "properties": {}}, {"name": "O", "species": [{"element": "O", "occu": 1}], "xyz": [0.427659, -0.608829, -2.827667], "properties": {}}, {"name": "C", "species": [{"element": "C", "occu": 1}], "xyz": [2.25779, -1.663625, -1.711155], "properties": {}}, {"name": "C", "species": [{"element": "C", "occu": 1}], "xyz": [3.016001, -0.350348, -1.457901], "properties": {}}, {"name": "C", "species": [{"element": "C", "occu": 1}], "xyz": [0.74057, -1.536328, -1.758439], "properties": {}}, {"name": "C", "species": [{"element": "C", "occu": 1}], "xyz": [2.905289, 0.182157, -0.04613], "properties": {}}, {"name": "C", "species": [{"element": "C", "occu": 1}], "xyz": [-0.888325, -0.374226, -3.07093], "properties": {}}, {"name": "C", "species": [{"element": "C", "occu": 1}], "xyz": [-1.070628, 0.625663, -4.184375], "properties": {}}, {"name": "H", "species": [{"element": "H", "occu": 1}], "xyz": [2.600095, -2.066491, -2.671455], "properties": {}}, {"name": "H", "species": [{"element": "H", "occu": 1}], "xyz": [2.518663, -2.401492, -0.943186], "properties": {}}, {"name": "H", "species": [{"element": "H", "occu": 1}], "xyz": [2.664385, 0.436334, -2.131769], "properties": {}}, {"name": "H", "species": [{"element": "H", "occu": 1}], "xyz": [4.085233, -0.496214, -1.642603], "properties": {}}, {"name": "H", "species": [{"element": "H", "occu": 1}], "xyz": [0.284542, -2.506278, -1.981293], "properties": {}}, {"name": "H", "species": [{"element": "H", "occu": 1}], "xyz": [0.32851, -1.152285, -0.822264], "properties": {}}, {"name": "H", "species": [{"element": "H", "occu": 1}], "xyz": [-0.601608, 1.571012, -3.901498], "properties": {}}, {"name": "H", "species": [{"element": "H", "occu": 1}], "xyz": [-0.604197, 0.243095, -5.095212], "properties": {}}, {"name": "H", "species": [{"element": "H", "occu": 1}], "xyz": [-2.138386, 0.78083, -4.353907], "properties": {}}]}, "smiles": "FC(F)(F)CCCOC(F)(F)C", "inchi": "InChI=1S/C6H9F5O/c1-5(7,8)12-4-2-3-6(9,10)11/h2-4H2,1H3", "formula_alphabetical": "C6 F5 H9 O1", "chemsys": "C-F-H-O", "energy": -808.563909421, "esp": {"1": ["F", -0.217625], "2": ["F", -0.195346], "3": ["F", -0.232213], "4": ["F", -0.265143], "5": ["F", -0.259031], "6": ["O", -0.363007], "7": ["C", -0.082451], "8": ["C", -0.158791], "9": ["C", 0.088943], "10": ["C", 0.590629], "11": ["C", 0.678176], "12": ["C", -0.533232], "13": ["H", 0.07441], "14": ["H", 0.056098], "15": ["H", 0.085018], "16": ["H", 0.093504], "17": ["H", 0.066289], "18": ["H", 0.068039], "19": ["H", 0.169605], "20": ["H", 0.161861], "21": ["H", 0.174266]}, "dipole_moment": {"X": 1.2328, "Y": -0.7237, "Z": -2.568, "Tot": 2.9391}, "functional": "B3LYP", "basis": "6-31+G*", "phase": "gas", "tag": "lis", "state": "successful", "wall_time (s)": 10.727361242985353, "version": "0.0.1", "gauss_version": "ES64L-G16RevC.01", "last_updated": "2021-09-14 22:07:12.432000", "polarizability": 78.49, "fluorinated-solvent": "90392453", "run_ids": ["61411cf50c1a64cb11b5e568", "61411d0c959cadd2c83cce0a"]}