{"_id": "614117228c9865f07598cf4c", "molecule": {"@module": "pymatgen.core.structure", "@class": "Molecule", "charge": 0, "spin_multiplicity": 1, "sites": [{"name": "F", "species": [{"element": "F", "occu": 1}], "xyz": [0.525186, -2.426393, -4.58627], "properties": {}}, {"name": "F", "species": [{"element": "F", "occu": 1}], "xyz": [0.276054, -1.301162, -2.735871], "properties": {}}, {"name": "F", "species": [{"element": "F", "occu": 1}], "xyz": [-1.020977, -3.01109, -3.154625], "properties": {}}, {"name": "O", "species": [{"element": "O", "occu": 1}], "xyz": [2.561883, -3.173301, -2.732952], "properties": {}}, {"name": "O", "species": [{"element": "O", "occu": 1}], "xyz": [4.922633, -1.289033, 0.217897], "properties": {}}, {"name": "C", "species": [{"element": "C", "occu": 1}], "xyz": [4.591125, -2.170009, -1.982628], "properties": {}}, {"name": "C", "species": [{"element": "C", "occu": 1}], "xyz": [3.074247, -2.156328, -1.856858], "properties": {}}, {"name": "C", "species": [{"element": "C", "occu": 1}], "xyz": [5.247382, -1.077063, -1.149059], "properties": {}}, {"name": "C", "species": [{"element": "C", "occu": 1}], "xyz": [1.212654, -3.507678, -2.564585], "properties": {}}, {"name": "C", "species": [{"element": "C", "occu": 1}], "xyz": [5.494351, -0.327211, 1.095867], "properties": {}}, {"name": "C", "species": [{"element": "C", "occu": 1}], "xyz": [0.252456, -2.550119, -3.270201], "properties": {}}, {"name": "C", "species": [{"element": "C", "occu": 1}], "xyz": [5.070249, -0.661147, 2.516713], "properties": {}}, {"name": "H", "species": [{"element": "H", "occu": 1}], "xyz": [4.972292, -3.149595, -1.671138], "properties": {}}, {"name": "H", "species": [{"element": "H", "occu": 1}], "xyz": [4.86447, -2.028515, -3.035972], "properties": {}}, {"name": "H", "species": [{"element": "H", "occu": 1}], "xyz": [2.671346, -1.174083, -2.138715], "properties": {}}, {"name": "H", "species": [{"element": "H", "occu": 1}], "xyz": [2.770776, -2.368487, -0.822616], "properties": {}}, {"name": "H", "species": [{"element": "H", "occu": 1}], "xyz": [6.341235, -1.100491, -1.288282], "properties": {}}, {"name": "H", "species": [{"element": "H", "occu": 1}], "xyz": [4.893699, -0.080399, -1.468626], "properties": {}}, {"name": "H", "species": [{"element": "H", "occu": 1}], "xyz": [0.915321, -3.546835, -1.505835], "properties": {}}, {"name": "H", "species": [{"element": "H", "occu": 1}], "xyz": [1.059423, -4.493444, -3.013728], "properties": {}}, {"name": "H", "species": [{"element": "H", "occu": 1}], "xyz": [6.593958, -0.344269, 1.002314], "properties": {}}, {"name": "H", "species": [{"element": "H", "occu": 1}], "xyz": [5.153849, 0.684194, 0.814535], "properties": {}}, {"name": "H", "species": [{"element": "H", "occu": 1}], "xyz": [5.41459, -1.66346, 2.793693], "properties": {}}, {"name": "H", "species": [{"element": "H", "occu": 1}], "xyz": [5.496547, 0.062006, 3.221987], "properties": {}}, {"name": "H", "species": [{"element": "H", "occu": 1}], "xyz": [3.978834, -0.634239, 2.607315], "properties": {}}]}, "smiles": "FC(F)(F)COCCCOCC", "inchi": "InChI=1S/C7H13F3O2/c1-2-11-4-3-5-12-6-7(8,9)10/h2-6H2,1H3", "formula_alphabetical": "C7 F3 H13 O2", "chemsys": "C-F-H-O", "energy": -724.568749176, "esp": {"1": ["F", -0.196281], "2": ["F", -0.21814], "3": ["F", -0.245874], "4": ["O", -0.435556], "5": ["O", -0.421798], "6": ["C", -0.068385], "7": ["C", 0.262483], "8": ["C", 0.105917], "9": ["C", -0.017132], "10": ["C", 0.319436], "11": ["C", 0.607644], "12": ["C", -0.277095], "13": ["H", 0.061186], "14": ["H", 0.034734], "15": ["H", 0.030399], "16": ["H", 0.006982], "17": ["H", 0.032155], "18": ["H", 0.015485], "19": ["H", 0.085543], "20": ["H", 0.120747], "21": ["H", -0.012383], "22": ["H", -0.017761], "23": ["H", 0.082564], "24": ["H", 0.065424], "25": ["H", 0.079707]}, "dipole_moment": {"X": 2.0422, "Y": 0.4525, "Z": 1.8972, "Tot": 2.824}, "functional": "B3LYP", "basis": "6-31+G*", "phase": "gas", "tag": "lis", "state": "successful", "wall_time (s)": 12.215317565947771, "version": "0.0.1", "gauss_version": "ES64L-G16RevC.01", "last_updated": "2021-09-14 21:41:53.984000", "polarizability": 95.69, "fluorinated-solvent": "88866035", "run_ids": ["614116ea8c527fbb2800ff37", "6141170d6183d3f709f5491a"]}