{"_id": "613a4bc70828e9834b4e331d", "molecule": {"@module": "pymatgen.core.structure", "@class": "Molecule", "charge": 0, "spin_multiplicity": 1, "sites": [{"name": "F", "species": [{"element": "F", "occu": 1}], "xyz": [4.689938, 0.036794, -1.430786], "properties": {}}, {"name": "F", "species": [{"element": "F", "occu": 1}], "xyz": [4.717392, -0.74394, 0.637857], "properties": {}}, {"name": "F", "species": [{"element": "F", "occu": 1}], "xyz": [1.444287, -3.777352, -2.309551], "properties": {}}, {"name": "F", "species": [{"element": "F", "occu": 1}], "xyz": [0.726694, -3.223033, -0.328775], "properties": {}}, {"name": "F", "species": [{"element": "F", "occu": 1}], "xyz": [-0.670268, -3.334714, -2.00221], "properties": {}}, {"name": "F", "species": [{"element": "F", "occu": 1}], "xyz": [0.271324, 0.754298, -1.689484], "properties": {}}, {"name": "F", "species": [{"element": "F", "occu": 1}], "xyz": [-1.363418, -0.682517, -1.847713], "properties": {}}, {"name": "F", "species": [{"element": "F", "occu": 1}], "xyz": [-0.151533, -0.599163, -0.035002], "properties": {}}, {"name": "F", "species": [{"element": "F", "occu": 1}], "xyz": [6.126424, -2.304122, -1.058892], "properties": {}}, {"name": "F", "species": [{"element": "F", "occu": 1}], "xyz": [4.264913, -3.315162, -0.411337], "properties": {}}, {"name": "O", "species": [{"element": "O", "occu": 1}], "xyz": [2.212738, -1.171236, -1.846529], "properties": {}}, {"name": "C", "species": [{"element": "C", "occu": 1}], "xyz": [0.865865, -1.507468, -2.029363], "properties": {}}, {"name": "C", "species": [{"element": "C", "occu": 1}], "xyz": [2.704548, -0.900294, -0.526824], "properties": {}}, {"name": "C", "species": [{"element": "C", "occu": 1}], "xyz": [4.221979, -0.96122, -0.617272], "properties": {}}, {"name": "C", "species": [{"element": "C", "occu": 1}], "xyz": [0.581145, -2.97972, -1.648708], "properties": {}}, {"name": "C", "species": [{"element": "C", "occu": 1}], "xyz": [-0.113414, -0.501527, -1.382383], "properties": {}}, {"name": "C", "species": [{"element": "C", "occu": 1}], "xyz": [4.770718, -2.290744, -1.167223], "properties": {}}, {"name": "H", "species": [{"element": "H", "occu": 1}], "xyz": [0.689683, -1.442539, -3.106913], "properties": {}}, {"name": "H", "species": [{"element": "H", "occu": 1}], "xyz": [2.367246, -1.639588, 0.202096], "properties": {}}, {"name": "H", "species": [{"element": "H", "occu": 1}], "xyz": [2.421456, 0.105878, -0.201507], "properties": {}}, {"name": "H", "species": [{"element": "H", "occu": 1}], "xyz": [4.487475, -2.444042, -2.210653], "properties": {}}]}, "smiles": "FC(F)(COC(C(F)(F)F)C(F)(F)F)C(F)F", "inchi": "InChI=1S/C6H4F10O/c7-3(8)4(9,10)1-17-2(5(11,12)13)6(14,15)16/h2-3H,1H2", "formula_alphabetical": "C6 F10 H4 O1", "chemsys": "C-F-H-O", "energy": -1304.7415662, "esp": {"1": ["F", -0.19857], "2": ["F", -0.182823], "3": ["F", -0.173016], "4": ["F", -0.156038], "5": ["F", -0.185235], "6": ["F", -0.172787], "7": ["F", -0.192149], "8": ["F", -0.186086], "9": ["F", -0.201542], "10": ["F", -0.202839], "11": ["O", -0.280913], "12": ["C", -0.155068], "13": ["C", -0.163209], "14": ["C", 0.356032], "15": ["C", 0.547491], "16": ["C", 0.592174], "17": ["C", 0.331049], "18": ["H", 0.193019], "19": ["H", 0.142815], "20": ["H", 0.178756], "21": ["H", 0.108938]}, "dipole_moment": {"X": -1.7401, "Y": 0.3443, "Z": -1.5114, "Tot": 2.3304}, "functional": "B3LYP", "basis": "6-31+G*", "phase": "gas", "tag": "lis", "state": "successful", "wall_time (s)": 16.990466895047575, "version": "0.0.1", "gauss_version": "ES64L-G16RevC.01", "last_updated": "2021-09-09 18:00:39.157000", "polarizability": 82.29, "fluorinated-solvent": "144095", "run_ids": ["613a4930048df68932e2e6ad", "613a4b44183c304339af8365"]}