{"_id": "614127e9ec2e4bcb79aeb10e", "molecule": {"@module": "pymatgen.core.structure", "@class": "Molecule", "charge": 0, "spin_multiplicity": 1, "sites": [{"name": "F", "species": [{"element": "F", "occu": 1}], "xyz": [2.888583, -0.853035, 1.045801], "properties": {}}, {"name": "F", "species": [{"element": "F", "occu": 1}], "xyz": [3.315531, 1.172621, 0.263391], "properties": {}}, {"name": "F", "species": [{"element": "F", "occu": 1}], "xyz": [3.602684, -0.951187, -3.894867], "properties": {}}, {"name": "F", "species": [{"element": "F", "occu": 1}], "xyz": [1.469495, -1.269366, -3.551325], "properties": {}}, {"name": "F", "species": [{"element": "F", "occu": 1}], "xyz": [2.926278, -0.309083, -6.515527], "properties": {}}, {"name": "F", "species": [{"element": "F", "occu": 1}], "xyz": [0.78944, -0.444093, -6.103466], "properties": {}}, {"name": "F", "species": [{"element": "F", "occu": 1}], "xyz": [1.653905, 1.446127, -6.76389], "properties": {}}, {"name": "O", "species": [{"element": "O", "occu": 1}], "xyz": [2.555045, 0.275907, -2.324551], "properties": {}}, {"name": "C", "species": [{"element": "C", "occu": 1}], "xyz": [2.534907, 0.050766, 0.05439], "properties": {}}, {"name": "C", "species": [{"element": "C", "occu": 1}], "xyz": [2.961652, -0.599055, -1.255201], "properties": {}}, {"name": "C", "species": [{"element": "C", "occu": 1}], "xyz": [1.07587, 0.437386, 0.201476], "properties": {}}, {"name": "C", "species": [{"element": "C", "occu": 1}], "xyz": [2.444406, -0.291009, -3.554627], "properties": {}}, {"name": "C", "species": [{"element": "C", "occu": 1}], "xyz": [2.1191, 0.806236, -4.558509], "properties": {}}, {"name": "C", "species": [{"element": "C", "occu": 1}], "xyz": [0.1026, -0.729676, 0.000346], "properties": {}}, {"name": "C", "species": [{"element": "C", "occu": 1}], "xyz": [1.874403, 0.351893, -5.987948], "properties": {}}, {"name": "H", "species": [{"element": "H", "occu": 1}], "xyz": [4.048073, -0.717189, -1.26053], "properties": {}}, {"name": "H", "species": [{"element": "H", "occu": 1}], "xyz": [2.479266, -1.574306, -1.350066], "properties": {}}, {"name": "H", "species": [{"element": "H", "occu": 1}], "xyz": [0.973169, 0.864235, 1.205522], "properties": {}}, {"name": "H", "species": [{"element": "H", "occu": 1}], "xyz": [0.87921, 1.237657, -0.519094], "properties": {}}, {"name": "H", "species": [{"element": "H", "occu": 1}], "xyz": [1.22297, 1.328234, -4.216081], "properties": {}}, {"name": "H", "species": [{"element": "H", "occu": 1}], "xyz": [2.952076, 1.512527, -4.566569], "properties": {}}, {"name": "H", "species": [{"element": "H", "occu": 1}], "xyz": [0.332624, -1.558491, 0.678407], "properties": {}}, {"name": "H", "species": [{"element": "H", "occu": 1}], "xyz": [-0.921331, -0.400859, 0.205968], "properties": {}}, {"name": "H", "species": [{"element": "H", "occu": 1}], "xyz": [0.128186, -1.105235, -1.028579], "properties": {}}]}, "smiles": "FC(F)(COC(F)(F)CC(F)(F)F)CC", "inchi": "InChI=1S/C7H9F7O/c1-2-5(8,9)4-15-7(13,14)3-6(10,11)12/h2-4H2,1H3", "formula_alphabetical": "C7 F7 H9 O1", "chemsys": "C-F-H-O", "energy": -1046.36226734, "esp": {"1": ["F", -0.259364], "2": ["F", -0.259391], "3": ["F", -0.242948], "4": ["F", -0.236049], "5": ["F", -0.201487], "6": ["F", -0.210222], "7": ["F", -0.223002], "8": ["O", -0.364182], "9": ["C", 0.474929], "10": ["C", -0.121592], "11": ["C", 0.023164], "12": ["C", 0.741591], "13": ["C", -0.589054], "14": ["C", -0.20807], "15": ["C", 0.68775], "16": ["H", 0.159315], "17": ["H", 0.111534], "18": ["H", 0.049209], "19": ["H", 0.027628], "20": ["H", 0.219884], "21": ["H", 0.21991], "22": ["H", 0.066466], "23": ["H", 0.068375], "24": ["H", 0.065608]}, "dipole_moment": {"X": -1.4578, "Y": 0.9737, "Z": 1.2553, "Tot": 2.1562}, "functional": "B3LYP", "basis": "6-31+G*", "phase": "gas", "tag": "lis", "state": "successful", "wall_time (s)": 14.858953887945972, "version": "0.0.1", "gauss_version": "ES64L-G16RevC.01", "last_updated": "2021-09-14 22:53:29.088000", "polarizability": 91.17, "fluorinated-solvent": "58537747", "run_ids": ["614127c9eb5a0158cfb4896c", "614127e3e8405b346929112c"]}