{"_id": "614118acd3d0cc295f8fc0a4", "molecule": {"@module": "pymatgen.core.structure", "@class": "Molecule", "charge": 0, "spin_multiplicity": 1, "sites": [{"name": "F", "species": [{"element": "F", "occu": 1}], "xyz": [3.023463, -1.066264, 0.102854], "properties": {}}, {"name": "F", "species": [{"element": "F", "occu": 1}], "xyz": [1.256242, 0.174063, 0.398742], "properties": {}}, {"name": "F", "species": [{"element": "F", "occu": 1}], "xyz": [3.177387, 0.802112, 1.215382], "properties": {}}, {"name": "O", "species": [{"element": "O", "occu": 1}], "xyz": [2.471979, 0.925727, -3.521185], "properties": {}}, {"name": "C", "species": [{"element": "C", "occu": 1}], "xyz": [2.902553, 0.977422, -1.161259], "properties": {}}, {"name": "C", "species": [{"element": "C", "occu": 1}], "xyz": [2.190358, 0.238476, -2.315257], "properties": {}}, {"name": "C", "species": [{"element": "C", "occu": 1}], "xyz": [2.59108, 0.224204, 0.135951], "properties": {}}, {"name": "C", "species": [{"element": "C", "occu": 1}], "xyz": [2.372467, 2.41894, -1.040592], "properties": {}}, {"name": "C", "species": [{"element": "C", "occu": 1}], "xyz": [4.426884, 0.97631, -1.384885], "properties": {}}, {"name": "C", "species": [{"element": "C", "occu": 1}], "xyz": [1.864976, 0.332291, -4.663803], "properties": {}}, {"name": "C", "species": [{"element": "C", "occu": 1}], "xyz": [2.239783, 1.155659, -5.884756], "properties": {}}, {"name": "H", "species": [{"element": "H", "occu": 1}], "xyz": [2.549028, -0.801189, -2.377049], "properties": {}}, {"name": "H", "species": [{"element": "H", "occu": 1}], "xyz": [1.103834, 0.214627, -2.13564], "properties": {}}, {"name": "H", "species": [{"element": "H", "occu": 1}], "xyz": [2.864763, 2.948201, -0.218838], "properties": {}}, {"name": "H", "species": [{"element": "H", "occu": 1}], "xyz": [2.576124, 2.950068, -1.97357], "properties": {}}, {"name": "H", "species": [{"element": "H", "occu": 1}], "xyz": [1.29163, 2.433127, -0.865359], "properties": {}}, {"name": "H", "species": [{"element": "H", "occu": 1}], "xyz": [4.941686, 1.489287, -0.566602], "properties": {}}, {"name": "H", "species": [{"element": "H", "occu": 1}], "xyz": [4.818693, -0.043682, -1.457081], "properties": {}}, {"name": "H", "species": [{"element": "H", "occu": 1}], "xyz": [4.647564, 1.495937, -2.320453], "properties": {}}, {"name": "H", "species": [{"element": "H", "occu": 1}], "xyz": [2.213224, -0.708971, -4.771538], "properties": {}}, {"name": "H", "species": [{"element": "H", "occu": 1}], "xyz": [0.770105, 0.30433, -4.531203], "properties": {}}, {"name": "H", "species": [{"element": "H", "occu": 1}], "xyz": [3.327234, 1.175171, -6.0151], "properties": {}}, {"name": "H", "species": [{"element": "H", "occu": 1}], "xyz": [1.78795, 0.726051, -6.786496], "properties": {}}, {"name": "H", "species": [{"element": "H", "occu": 1}], "xyz": [1.886584, 2.186754, -5.775164], "properties": {}}]}, "smiles": "FC(F)(F)C(COCC)(C)C", "inchi": "InChI=1S/C7H13F3O/c1-4-11-5-6(2,3)7(8,9)10/h4-5H2,1-3H3", "formula_alphabetical": "C7 F3 H13 O1", "chemsys": "C-F-H-O", "energy": -649.363888395, "esp": {"1": ["F", -0.228174], "2": ["F", -0.226187], "3": ["F", -0.213119], "4": ["O", -0.317225], "5": ["C", 0.308522], "6": ["C", -0.076674], "7": ["C", 0.534686], "8": ["C", -0.33806], "9": ["C", -0.309865], "10": ["C", 0.273188], "11": ["C", -0.320513], "12": ["H", 0.059758], "13": ["H", 0.057219], "14": ["H", 0.088432], "15": ["H", 0.091077], "16": ["H", 0.094712], "17": ["H", 0.081323], "18": ["H", 0.08638], "19": ["H", 0.085603], "20": ["H", 0.002431], "21": ["H", 0.002029], "22": ["H", 0.0905], "23": ["H", 0.08261], "24": ["H", 0.091344]}, "dipole_moment": {"X": -0.1569, "Y": 0.3902, "Z": -2.5743, "Tot": 2.6084}, "functional": "B3LYP", "basis": "6-31+G*", "phase": "gas", "tag": "lis", "state": "successful", "wall_time (s)": 10.923212182009593, "version": "0.0.1", "gauss_version": "ES64L-G16RevC.01", "last_updated": "2021-09-14 21:48:28.195000", "polarizability": 89.49, "fluorinated-solvent": "147630994", "run_ids": ["614118910ee5e74424795a7d", "614118a892384f456e853233"]}