{"_id": "614128099b1574569ae750a8", "molecule": {"@module": "pymatgen.core.structure", "@class": "Molecule", "charge": 0, "spin_multiplicity": 1, "sites": [{"name": "F", "species": [{"element": "F", "occu": 1}], "xyz": [1.242718, 0.787174, -0.325989], "properties": {}}, {"name": "F", "species": [{"element": "F", "occu": 1}], "xyz": [3.397545, 1.085836, -0.556575], "properties": {}}, {"name": "F", "species": [{"element": "F", "occu": 1}], "xyz": [1.642237, -1.999508, -0.577034], "properties": {}}, {"name": "F", "species": [{"element": "F", "occu": 1}], "xyz": [2.572889, 1.957628, 1.945047], "properties": {}}, {"name": "F", "species": [{"element": "F", "occu": 1}], "xyz": [0.949894, 0.576857, 2.424743], "properties": {}}, {"name": "F", "species": [{"element": "F", "occu": 1}], "xyz": [2.776753, -1.123773, 3.695501], "properties": {}}, {"name": "F", "species": [{"element": "F", "occu": 1}], "xyz": [4.387566, 0.273673, 3.232481], "properties": {}}, {"name": "F", "species": [{"element": "F", "occu": 1}], "xyz": [2.723056, -1.863503, -3.251842], "properties": {}}, {"name": "F", "species": [{"element": "F", "occu": 1}], "xyz": [4.420877, 1.586859, 5.813402], "properties": {}}, {"name": "O", "species": [{"element": "O", "occu": 1}], "xyz": [2.660286, -0.170603, 1.16441], "properties": {}}, {"name": "O", "species": [{"element": "O", "occu": 1}], "xyz": [2.658174, 0.972244, 4.511205], "properties": {}}, {"name": "C", "species": [{"element": "C", "occu": 1}], "xyz": [2.450732, 0.184851, -0.15469], "properties": {}}, {"name": "C", "species": [{"element": "C", "occu": 1}], "xyz": [2.571094, -1.07073, -1.027175], "properties": {}}, {"name": "C", "species": [{"element": "C", "occu": 1}], "xyz": [2.280998, 0.66216, 2.198435], "properties": {}}, {"name": "C", "species": [{"element": "C", "occu": 1}], "xyz": [3.049984, 0.198926, 3.471257], "properties": {}}, {"name": "C", "species": [{"element": "C", "occu": 1}], "xyz": [2.31818, -0.763587, -2.493899], "properties": {}}, {"name": "C", "species": [{"element": "C", "occu": 1}], "xyz": [3.303332, 0.765463, 5.766696], "properties": {}}, {"name": "C", "species": [{"element": "C", "occu": 1}], "xyz": [2.336633, 1.155208, 6.855248], "properties": {}}, {"name": "H", "species": [{"element": "H", "occu": 1}], "xyz": [3.572082, -1.490882, -0.886699], "properties": {}}, {"name": "H", "species": [{"element": "H", "occu": 1}], "xyz": [1.251252, -0.599799, -2.669399], "properties": {}}, {"name": "H", "species": [{"element": "H", "occu": 1}], "xyz": [2.898267, 0.105928, -2.816963], "properties": {}}, {"name": "H", "species": [{"element": "H", "occu": 1}], "xyz": [3.662031, -0.265119, 5.835648], "properties": {}}, {"name": "H", "species": [{"element": "H", "occu": 1}], "xyz": [1.467027, 0.491698, 6.836947], "properties": {}}, {"name": "H", "species": [{"element": "H", "occu": 1}], "xyz": [2.832209, 1.07795, 7.827054], "properties": {}}, {"name": "H", "species": [{"element": "H", "occu": 1}], "xyz": [2.006743, 2.186436, 6.698583], "properties": {}}]}, "smiles": "FC(F)(OC(F)(F)C(F)(F)O[C@@H](F)C)[C@@H](F)CF", "inchi": "InChI=1S/C7H7F9O2/c1-3(9)17-6(13,14)7(15,16)18-5(11,12)4(10)2-8/h3-4H,2H2,1H3/t3-,4+/m1/s1", "formula_alphabetical": "C7 F9 H7 O2", "chemsys": "C-F-H-O", "energy": -1320.04268423, "esp": {"1": ["F", -0.159664], "2": ["F", -0.180845], "3": ["F", -0.20207], "4": ["F", -0.131665], "5": ["F", -0.150701], "6": ["F", -0.171661], "7": ["F", -0.154618], "8": ["F", -0.254459], "9": ["F", -0.277301], "10": ["O", -0.289808], "11": ["O", -0.362007], "12": ["C", 0.393355], "13": ["C", 0.091027], "14": ["C", 0.460939], "15": ["C", 0.351903], "16": ["C", 0.129524], "17": ["C", 0.577476], "18": ["C", -0.533196], "19": ["H", 0.141371], "20": ["H", 0.10149], "21": ["H", 0.0754], "22": ["H", 0.053429], "23": ["H", 0.155491], "24": ["H", 0.150928], "25": ["H", 0.185665]}, "dipole_moment": {"X": -0.3546, "Y": 0.3134, "Z": 1.8324, "Tot": 1.8925}, "functional": "B3LYP", "basis": "6-31+G*", "phase": "gas", "tag": "lis", "state": "successful", "wall_time (s)": 19.159153545973822, "version": "0.0.1", "gauss_version": "ES64L-G16RevC.01", "last_updated": "2021-09-14 22:54:01.458000", "polarizability": 99.0, "fluorinated-solvent": "91600166", "run_ids": ["614127de066f3784dfc33fb5", "614128025750d3b61022b061"]}