{"_id": "61411ffbeae1f8b71d9f8041", "molecule": {"@module": "pymatgen.core.structure", "@class": "Molecule", "charge": 0, "spin_multiplicity": 1, "sites": [{"name": "F", "species": [{"element": "F", "occu": 1}], "xyz": [3.224661, 2.500895, 0.213643], "properties": {}}, {"name": "F", "species": [{"element": "F", "occu": 1}], "xyz": [2.455591, 2.183378, 2.224689], "properties": {}}, {"name": "F", "species": [{"element": "F", "occu": 1}], "xyz": [1.17715, 1.78841, 0.493875], "properties": {}}, {"name": "O", "species": [{"element": "O", "occu": 1}], "xyz": [2.805838, 0.398557, 0.897936], "properties": {}}, {"name": "O", "species": [{"element": "O", "occu": 1}], "xyz": [6.626055, -0.660647, -0.785241], "properties": {}}, {"name": "C", "species": [{"element": "C", "occu": 1}], "xyz": [4.462717, -1.341633, 1.007395], "properties": {}}, {"name": "C", "species": [{"element": "C", "occu": 1}], "xyz": [4.433679, -1.594735, -0.509252], "properties": {}}, {"name": "C", "species": [{"element": "C", "occu": 1}], "xyz": [4.136215, 0.084288, 1.414853], "properties": {}}, {"name": "C", "species": [{"element": "C", "occu": 1}], "xyz": [5.30725, -0.640919, -1.317132], "properties": {}}, {"name": "C", "species": [{"element": "C", "occu": 1}], "xyz": [2.430008, 1.67845, 0.959719], "properties": {}}, {"name": "C", "species": [{"element": "C", "occu": 1}], "xyz": [7.51903, 0.191094, -1.480415], "properties": {}}, {"name": "H", "species": [{"element": "H", "occu": 1}], "xyz": [5.464766, -1.558791, 1.39518], "properties": {}}, {"name": "H", "species": [{"element": "H", "occu": 1}], "xyz": [3.763335, -2.026027, 1.503404], "properties": {}}, {"name": "H", "species": [{"element": "H", "occu": 1}], "xyz": [4.762715, -2.624531, -0.695169], "properties": {}}, {"name": "H", "species": [{"element": "H", "occu": 1}], "xyz": [3.405602, -1.509862, -0.881558], "properties": {}}, {"name": "H", "species": [{"element": "H", "occu": 1}], "xyz": [4.853237, 0.796162, 0.995543], "properties": {}}, {"name": "H", "species": [{"element": "H", "occu": 1}], "xyz": [4.113562, 0.196524, 2.503319], "properties": {}}, {"name": "H", "species": [{"element": "H", "occu": 1}], "xyz": [5.320298, -0.94827, -2.376438], "properties": {}}, {"name": "H", "species": [{"element": "H", "occu": 1}], "xyz": [4.905273, 0.386174, -1.28197], "properties": {}}, {"name": "H", "species": [{"element": "H", "occu": 1}], "xyz": [7.620398, -0.108679, -2.53602], "properties": {}}, {"name": "H", "species": [{"element": "H", "occu": 1}], "xyz": [7.184392, 1.240705, -1.443239], "properties": {}}, {"name": "H", "species": [{"element": "H", "occu": 1}], "xyz": [8.492029, 0.107019, -0.989211], "properties": {}}]}, "smiles": "FC(F)(F)OCCCCOC", "inchi": "InChI=1S/C6H11F3O2/c1-10-4-2-3-5-11-6(7,8)9/h2-5H2,1H3", "formula_alphabetical": "C6 F3 H11 O2", "chemsys": "C-F-H-O", "energy": -685.263108124, "esp": {"1": ["F", -0.218282], "2": ["F", -0.218542], "3": ["F", -0.19741], "4": ["O", -0.330435], "5": ["O", -0.302876], "6": ["C", 0.034854], "7": ["C", -0.248148], "8": ["C", 0.00909], "9": ["C", 0.148689], "10": ["C", 0.691266], "11": ["C", -0.163217], "12": ["H", 0.015727], "13": ["H", 0.054782], "14": ["H", 0.09473], "15": ["H", 0.078947], "16": ["H", 0.100338], "17": ["H", 0.082427], "18": ["H", 0.044679], "19": ["H", 0.036728], "20": ["H", 0.083758], "21": ["H", 0.085796], "22": ["H", 0.117098]}, "dipole_moment": {"X": 2.0389, "Y": -1.2192, "Z": -0.6052, "Tot": 2.4515}, "functional": "B3LYP", "basis": "6-31+G*", "phase": "gas", "tag": "lis", "state": "successful", "wall_time (s)": 10.090748745948076, "version": "0.0.1", "gauss_version": "ES64L-G16RevC.01", "last_updated": "2021-09-14 22:19:39.582000", "polarizability": 82.28, "fluorinated-solvent": "134514089", "run_ids": ["61411fe564c98ccc378b4627", "61411ff74002ec43bc608766"]}