{"_id": "614116bd9105cdd8c35bacad", "molecule": {"@module": "pymatgen.core.structure", "@class": "Molecule", "charge": 0, "spin_multiplicity": 1, "sites": [{"name": "F", "species": [{"element": "F", "occu": 1}], "xyz": [1.154298, -0.047869, -0.55934], "properties": {}}, {"name": "F", "species": [{"element": "F", "occu": 1}], "xyz": [2.852667, 1.319544, -0.351539], "properties": {}}, {"name": "F", "species": [{"element": "F", "occu": 1}], "xyz": [0.480848, -0.132319, 4.530606], "properties": {}}, {"name": "O", "species": [{"element": "O", "occu": 1}], "xyz": [2.753841, -0.510827, 0.965232], "properties": {}}, {"name": "C", "species": [{"element": "C", "occu": 1}], "xyz": [2.059686, 0.131417, 2.060437], "properties": {}}, {"name": "C", "species": [{"element": "C", "occu": 1}], "xyz": [2.515996, -0.028724, -0.280986], "properties": {}}, {"name": "C", "species": [{"element": "C", "occu": 1}], "xyz": [2.511689, -0.570284, 3.332793], "properties": {}}, {"name": "C", "species": [{"element": "C", "occu": 1}], "xyz": [3.2812, -0.801706, -1.335142], "properties": {}}, {"name": "C", "species": [{"element": "C", "occu": 1}], "xyz": [1.880929, 0.029123, 4.577072], "properties": {}}, {"name": "C", "species": [{"element": "C", "occu": 1}], "xyz": [2.912544, -2.287616, -1.374427], "properties": {}}, {"name": "H", "species": [{"element": "H", "occu": 1}], "xyz": [2.322475, 1.195541, 2.078255], "properties": {}}, {"name": "H", "species": [{"element": "H", "occu": 1}], "xyz": [0.980599, 0.032549, 1.914608], "properties": {}}, {"name": "H", "species": [{"element": "H", "occu": 1}], "xyz": [2.263077, -1.636417, 3.273301], "properties": {}}, {"name": "H", "species": [{"element": "H", "occu": 1}], "xyz": [3.60339, -0.491658, 3.424434], "properties": {}}, {"name": "H", "species": [{"element": "H", "occu": 1}], "xyz": [3.069823, -0.316313, -2.293575], "properties": {}}, {"name": "H", "species": [{"element": "H", "occu": 1}], "xyz": [4.346291, -0.664729, -1.120014], "properties": {}}, {"name": "H", "species": [{"element": "H", "occu": 1}], "xyz": [2.232772, -0.471897, 5.485006], "properties": {}}, {"name": "H", "species": [{"element": "H", "occu": 1}], "xyz": [2.072848, 1.105933, 4.659343], "properties": {}}, {"name": "H", "species": [{"element": "H", "occu": 1}], "xyz": [1.846308, -2.421487, -1.584582], "properties": {}}, {"name": "H", "species": [{"element": "H", "occu": 1}], "xyz": [3.481838, -2.795067, -2.160628], "properties": {}}, {"name": "H", "species": [{"element": "H", "occu": 1}], "xyz": [3.13767, -2.771974, -0.419175], "properties": {}}]}, "smiles": "FC(F)(OCCCF)CC", "inchi": "InChI=1S/C6H11F3O/c1-2-6(8,9)10-5-3-4-7/h2-5H2,1H3", "formula_alphabetical": "C6 F3 H11 O1", "chemsys": "C-F-H-O", "energy": -610.054936937, "esp": {"1": ["F", -0.237221], "2": ["F", -0.274551], "3": ["F", -0.300828], "4": ["O", -0.382706], "5": ["C", 0.23917], "6": ["C", 0.513411], "7": ["C", -0.162247], "8": ["C", -0.031505], "9": ["C", 0.221185], "10": ["C", -0.170243], "11": ["H", 0.047428], "12": ["H", 0.041424], "13": ["H", 0.092458], "14": ["H", 0.049566], "15": ["H", 0.060696], "16": ["H", 0.055934], "17": ["H", 0.043245], "18": ["H", 0.02614], "19": ["H", 0.063823], "20": ["H", 0.058054], "21": ["H", 0.046767]}, "dipole_moment": {"X": 2.5366, "Y": -0.9381, "Z": 0.7455, "Tot": 2.8054}, "functional": "B3LYP", "basis": "6-31+G*", "phase": "gas", "tag": "lis", "state": "successful", "wall_time (s)": 10.3346286569722, "version": "0.0.1", "gauss_version": "ES64L-G16RevC.01", "last_updated": "2021-09-14 21:40:12.729000", "polarizability": 77.61, "fluorinated-solvent": "89201084", "run_ids": ["61411690722de23cf34ce62e", "614116b34a6b851db5d1c450"]}