{"_id": "614112783a0222e69268499d", "molecule": {"@module": "pymatgen.core.structure", "@class": "Molecule", "charge": 0, "spin_multiplicity": 1, "sites": [{"name": "F", "species": [{"element": "F", "occu": 1}], "xyz": [0.960596, 0.447672, -0.484522], "properties": {}}, {"name": "F", "species": [{"element": "F", "occu": 1}], "xyz": [2.165357, -1.315845, -0.022645], "properties": {}}, {"name": "F", "species": [{"element": "F", "occu": 1}], "xyz": [3.083843, 0.431852, -0.953967], "properties": {}}, {"name": "F", "species": [{"element": "F", "occu": 1}], "xyz": [-0.452844, -0.04095, 1.764264], "properties": {}}, {"name": "F", "species": [{"element": "F", "occu": 1}], "xyz": [-0.074923, -0.437807, 3.874312], "properties": {}}, {"name": "F", "species": [{"element": "F", "occu": 1}], "xyz": [0.193876, 1.574586, 3.081095], "properties": {}}, {"name": "O", "species": [{"element": "O", "occu": 1}], "xyz": [2.349184, 1.983561, 1.266087], "properties": {}}, {"name": "C", "species": [{"element": "C", "occu": 1}], "xyz": [2.532895, 0.596951, 1.344646], "properties": {}}, {"name": "C", "species": [{"element": "C", "occu": 1}], "xyz": [1.81937, -0.092013, 2.529501], "properties": {}}, {"name": "C", "species": [{"element": "C", "occu": 1}], "xyz": [2.161028, 0.04472, -0.042145], "properties": {}}, {"name": "C", "species": [{"element": "C", "occu": 1}], "xyz": [3.074219, 2.76052, 2.226709], "properties": {}}, {"name": "C", "species": [{"element": "C", "occu": 1}], "xyz": [0.366857, 0.262977, 2.791908], "properties": {}}, {"name": "C", "species": [{"element": "C", "occu": 1}], "xyz": [2.836748, 4.232414, 1.918411], "properties": {}}, {"name": "C", "species": [{"element": "C", "occu": 1}], "xyz": [1.368532, 4.647844, 2.066038], "properties": {}}, {"name": "H", "species": [{"element": "H", "occu": 1}], "xyz": [3.602175, 0.347781, 1.449556], "properties": {}}, {"name": "H", "species": [{"element": "H", "occu": 1}], "xyz": [1.872677, -1.177074, 2.406694], "properties": {}}, {"name": "H", "species": [{"element": "H", "occu": 1}], "xyz": [2.35811, 0.154758, 3.44885], "properties": {}}, {"name": "H", "species": [{"element": "H", "occu": 1}], "xyz": [2.723263, 2.524011, 3.242449], "properties": {}}, {"name": "H", "species": [{"element": "H", "occu": 1}], "xyz": [4.145507, 2.510767, 2.159457], "properties": {}}, {"name": "H", "species": [{"element": "H", "occu": 1}], "xyz": [3.469249, 4.81998, 2.598149], "properties": {}}, {"name": "H", "species": [{"element": "H", "occu": 1}], "xyz": [3.188676, 4.433781, 0.898502], "properties": {}}, {"name": "H", "species": [{"element": "H", "occu": 1}], "xyz": [1.009957, 4.470742, 3.087793], "properties": {}}, {"name": "H", "species": [{"element": "H", "occu": 1}], "xyz": [1.241031, 5.713128, 1.842208], "properties": {}}, {"name": "H", "species": [{"element": "H", "occu": 1}], "xyz": [0.731888, 4.074362, 1.385531], "properties": {}}]}, "smiles": "FC(F)(F)[C@@H](OCCC)CC(F)(F)F", "inchi": "InChI=1S/C7H10F6O/c1-2-3-14-5(7(11,12)13)4-6(8,9)10/h5H,2-4H2,1H3/t5-/m0/s1", "formula_alphabetical": "C7 F6 H10 O1", "chemsys": "C-F-H-O", "energy": -947.097888887, "esp": {"1": ["F", -0.165755], "2": ["F", -0.216645], "3": ["F", -0.218001], "4": ["F", -0.205986], "5": ["F", -0.243394], "6": ["F", -0.209215], "7": ["O", -0.359386], "8": ["C", 0.122288], "9": ["C", -0.405511], "10": ["C", 0.574186], "11": ["C", 0.082038], "12": ["C", 0.684414], "13": ["C", 0.086774], "14": ["C", -0.18754], "15": ["H", 0.093497], "16": ["H", 0.156138], "17": ["H", 0.153611], "18": ["H", 0.051557], "19": ["H", 0.026013], "20": ["H", -0.006682], "21": ["H", 0.021831], "22": ["H", 0.056017], "23": ["H", 0.0468], "24": ["H", 0.06295]}, "dipole_moment": {"X": 3.2405, "Y": 0.6298, "Z": 2.3248, "Tot": 4.0376}, "functional": "B3LYP", "basis": "6-31+G*", "phase": "gas", "tag": "lis", "state": "successful", "wall_time (s)": 14.350132412044331, "version": "0.0.1", "gauss_version": "ES64L-G16RevC.01", "last_updated": "2021-09-14 21:21:59.874000", "polarizability": 91.35, "fluorinated-solvent": "60058124", "run_ids": ["614111b1828e6be46ec675e7", "61411229455b49371cfbd123"]}