{"_id": "61410c1a74e541bc741bc1f7", "molecule": {"@module": "pymatgen.core.structure", "@class": "Molecule", "charge": 0, "spin_multiplicity": 1, "sites": [{"name": "F", "species": [{"element": "F", "occu": 1}], "xyz": [1.052193, -2.806776, -3.097401], "properties": {}}, {"name": "F", "species": [{"element": "F", "occu": 1}], "xyz": [0.262305, -0.964435, -2.21908], "properties": {}}, {"name": "F", "species": [{"element": "F", "occu": 1}], "xyz": [3.344401, -1.440713, -3.909014], "properties": {}}, {"name": "F", "species": [{"element": "F", "occu": 1}], "xyz": [1.458857, -0.527216, -4.610723], "properties": {}}, {"name": "F", "species": [{"element": "F", "occu": 1}], "xyz": [0.924986, -2.486338, 3.718639], "properties": {}}, {"name": "O", "species": [{"element": "O", "occu": 1}], "xyz": [2.189732, -1.819749, -1.415731], "properties": {}}, {"name": "O", "species": [{"element": "O", "occu": 1}], "xyz": [2.047795, -0.97965, 1.364063], "properties": {}}, {"name": "C", "species": [{"element": "C", "occu": 1}], "xyz": [1.630557, -2.661273, -0.37562], "properties": {}}, {"name": "C", "species": [{"element": "C", "occu": 1}], "xyz": [2.326882, -2.307488, 0.92729], "properties": {}}, {"name": "C", "species": [{"element": "C", "occu": 1}], "xyz": [1.437958, -1.628391, -2.512355], "properties": {}}, {"name": "C", "species": [{"element": "C", "occu": 1}], "xyz": [0.806629, -0.780954, 2.025004], "properties": {}}, {"name": "C", "species": [{"element": "C", "occu": 1}], "xyz": [2.229581, -0.764599, -3.513277], "properties": {}}, {"name": "C", "species": [{"element": "C", "occu": 1}], "xyz": [0.8621, -1.091528, 3.508733], "properties": {}}, {"name": "H", "species": [{"element": "H", "occu": 1}], "xyz": [0.550935, -2.495968, -0.315787], "properties": {}}, {"name": "H", "species": [{"element": "H", "occu": 1}], "xyz": [1.817465, -3.708947, -0.635923], "properties": {}}, {"name": "H", "species": [{"element": "H", "occu": 1}], "xyz": [2.051828, -3.04719, 1.689707], "properties": {}}, {"name": "H", "species": [{"element": "H", "occu": 1}], "xyz": [3.410364, -2.346454, 0.779723], "properties": {}}, {"name": "H", "species": [{"element": "H", "occu": 1}], "xyz": [0.567173, 0.282654, 1.905036], "properties": {}}, {"name": "H", "species": [{"element": "H", "occu": 1}], "xyz": [-0.004094, -1.360994, 1.559551], "properties": {}}, {"name": "H", "species": [{"element": "H", "occu": 1}], "xyz": [2.52362, 0.186857, -3.06217], "properties": {}}, {"name": "H", "species": [{"element": "H", "occu": 1}], "xyz": [1.755319, -0.655327, 3.967156], "properties": {}}, {"name": "H", "species": [{"element": "H", "occu": 1}], "xyz": [-0.040587, -0.729422, 4.01532], "properties": {}}]}, "smiles": "FC(F)(OCCOCCF)C(F)F", "inchi": "InChI=1S/C6H9F5O2/c7-1-2-12-3-4-13-6(10,11)5(8)9/h5H,1-4H2", "formula_alphabetical": "C6 F5 H9 O2", "chemsys": "C-F-H-O", "energy": -883.731093418, "esp": {"1": ["F", -0.181621], "2": ["F", -0.222604], "3": ["F", -0.206149], "4": ["F", -0.208068], "5": ["F", -0.258636], "6": ["O", -0.366295], "7": ["O", -0.459468], "8": ["C", 0.10182], "9": ["C", 0.180135], "10": ["C", 0.438102], "11": ["C", 0.224826], "12": ["C", 0.340882], "13": ["C", 0.076759], "14": ["H", 0.088451], "15": ["H", 0.058645], "16": ["H", 0.016785], "17": ["H", 0.074128], "18": ["H", 0.036641], "19": ["H", 0.025956], "20": ["H", 0.103383], "21": ["H", 0.088402], "22": ["H", 0.047926]}, "dipole_moment": {"X": -0.5827, "Y": 1.0268, "Z": 3.1363, "Tot": 3.3512}, "functional": "B3LYP", "basis": "6-31+G*", "phase": "gas", "tag": "lis", "state": "successful", "wall_time (s)": 11.480060232104734, "version": "0.0.1", "gauss_version": "ES64L-G16RevC.01", "last_updated": "2021-09-14 20:54:50.745000", "polarizability": 84.15, "fluorinated-solvent": "88850806", "run_ids": ["61410b06f55aec466d3b2fa7", "61410bbbaa8051276b13aba4"]}