{"_id": "613a4cb87fe77a6dcbbd4e42", "molecule": {"@module": "pymatgen.core.structure", "@class": "Molecule", "charge": 0, "spin_multiplicity": 1, "sites": [{"name": "F", "species": [{"element": "F", "occu": 1}], "xyz": [2.852024, 0.56371, 1.084907], "properties": {}}, {"name": "F", "species": [{"element": "F", "occu": 1}], "xyz": [3.346664, 0.644781, -1.065862], "properties": {}}, {"name": "F", "species": [{"element": "F", "occu": 1}], "xyz": [3.686724, -3.510624, -1.645285], "properties": {}}, {"name": "F", "species": [{"element": "F", "occu": 1}], "xyz": [1.812642, -4.013339, -0.640155], "properties": {}}, {"name": "F", "species": [{"element": "F", "occu": 1}], "xyz": [2.187831, -2.736685, -3.943736], "properties": {}}, {"name": "F", "species": [{"element": "F", "occu": 1}], "xyz": [1.208799, -5.176002, -4.614942], "properties": {}}, {"name": "F", "species": [{"element": "F", "occu": 1}], "xyz": [3.150657, -5.337949, -3.641185], "properties": {}}, {"name": "F", "species": [{"element": "F", "occu": 1}], "xyz": [1.33546, -5.881927, -2.554083], "properties": {}}, {"name": "F", "species": [{"element": "F", "occu": 1}], "xyz": [-0.250073, -1.119535, 0.359517], "properties": {}}, {"name": "F", "species": [{"element": "F", "occu": 1}], "xyz": [0.10235, 0.592544, 1.661629], "properties": {}}, {"name": "F", "species": [{"element": "F", "occu": 1}], "xyz": [-1.21357, 0.792117, -0.066921], "properties": {}}, {"name": "O", "species": [{"element": "O", "occu": 1}], "xyz": [2.132301, -1.908316, -1.372296], "properties": {}}, {"name": "C", "species": [{"element": "C", "occu": 1}], "xyz": [2.465125, 0.106819, -0.153936], "properties": {}}, {"name": "C", "species": [{"element": "C", "occu": 1}], "xyz": [2.650171, -1.404723, -0.129128], "properties": {}}, {"name": "C", "species": [{"element": "C", "occu": 1}], "xyz": [1.088894, 0.656262, -0.516281], "properties": {}}, {"name": "C", "species": [{"element": "C", "occu": 1}], "xyz": [2.350466, -3.220651, -1.625841], "properties": {}}, {"name": "C", "species": [{"element": "C", "occu": 1}], "xyz": [1.676883, -3.565247, -2.967672], "properties": {}}, {"name": "C", "species": [{"element": "C", "occu": 1}], "xyz": [-0.063598, 0.227027, 0.372777], "properties": {}}, {"name": "C", "species": [{"element": "C", "occu": 1}], "xyz": [1.86284, -5.017794, -3.44421], "properties": {}}, {"name": "H", "species": [{"element": "H", "occu": 1}], "xyz": [3.718563, -1.615975, -0.037764], "properties": {}}, {"name": "H", "species": [{"element": "H", "occu": 1}], "xyz": [2.100782, -1.834687, 0.710881], "properties": {}}, {"name": "H", "species": [{"element": "H", "occu": 1}], "xyz": [1.150108, 1.747091, -0.483751], "properties": {}}, {"name": "H", "species": [{"element": "H", "occu": 1}], "xyz": [0.854653, 0.348228, -1.537552], "properties": {}}, {"name": "H", "species": [{"element": "H", "occu": 1}], "xyz": [0.603804, -3.380555, -2.863073], "properties": {}}]}, "smiles": "FC(F)(COC(F)(F)[C@@H](F)C(F)(F)F)CC(F)(F)F", "inchi": "InChI=1S/C7H5F11O/c8-3(6(14,15)16)7(17,18)19-2-4(9,10)1-5(11,12)13/h3H,1-2H2/t3-/m0/s1", "formula_alphabetical": "C7 F11 H5 O1", "chemsys": "C-F-H-O", "energy": -1443.32408611, "esp": {"1": ["F", -0.226844], "2": ["F", -0.215198], "3": ["F", -0.17904], "4": ["F", -0.198275], "5": ["F", -0.169566], "6": ["F", -0.178351], "7": ["F", -0.158777], "8": ["F", -0.190492], "9": ["F", -0.21721], "10": ["F", -0.201135], "11": ["F", -0.219475], "12": ["O", -0.238325], "13": ["C", 0.54241], "14": ["C", -0.27283], "15": ["C", -0.512412], "16": ["C", 0.499338], "17": ["C", -0.054903], "18": ["C", 0.684506], "19": ["C", 0.549147], "20": ["H", 0.195681], "21": ["H", 0.18278], "22": ["H", 0.216344], "23": ["H", 0.195397], "24": ["H", 0.167231]}, "dipole_moment": {"X": -0.9242, "Y": 1.1277, "Z": 0.2673, "Tot": 1.4823}, "functional": "B3LYP", "basis": "6-31+G*", "phase": "gas", "tag": "lis", "state": "successful", "wall_time (s)": 20.654637419967912, "version": "0.0.1", "gauss_version": "ES64L-G16RevC.01", "last_updated": "2021-09-09 18:04:40.207000", "polarizability": 94.59, "fluorinated-solvent": "11623808", "run_ids": ["613a49af5826736fc747c164", "613a4b7bfe37843f2529a7fe"]}