{"_id": "613a55a94181efb872324efc", "molecule": {"@module": "pymatgen.core.structure", "@class": "Molecule", "charge": 0, "spin_multiplicity": 1, "sites": [{"name": "F", "species": [{"element": "F", "occu": 1}], "xyz": [1.620087, -1.243845, 0.439399], "properties": {}}, {"name": "F", "species": [{"element": "F", "occu": 1}], "xyz": [3.720497, -0.932378, -0.024196], "properties": {}}, {"name": "F", "species": [{"element": "F", "occu": 1}], "xyz": [0.239578, 0.771082, -3.076309], "properties": {}}, {"name": "F", "species": [{"element": "F", "occu": 1}], "xyz": [0.415101, -1.286352, -3.787809], "properties": {}}, {"name": "F", "species": [{"element": "F", "occu": 1}], "xyz": [-0.234738, -0.884923, -1.745188], "properties": {}}, {"name": "F", "species": [{"element": "F", "occu": 1}], "xyz": [4.330719, -0.204665, -2.751395], "properties": {}}, {"name": "F", "species": [{"element": "F", "occu": 1}], "xyz": [3.038474, -0.89993, -4.364566], "properties": {}}, {"name": "F", "species": [{"element": "F", "occu": 1}], "xyz": [2.909899, 1.166242, -3.668507], "properties": {}}, {"name": "F", "species": [{"element": "F", "occu": 1}], "xyz": [2.078267, -0.478175, 3.067716], "properties": {}}, {"name": "F", "species": [{"element": "F", "occu": 1}], "xyz": [4.186616, -0.171658, 2.604378], "properties": {}}, {"name": "F", "species": [{"element": "F", "occu": 1}], "xyz": [2.981797, 1.487655, 3.349829], "properties": {}}, {"name": "O", "species": [{"element": "O", "occu": 1}], "xyz": [2.174587, 0.305403, -1.102005], "properties": {}}, {"name": "C", "species": [{"element": "C", "occu": 1}], "xyz": [2.053362, -0.551238, -2.228072], "properties": {}}, {"name": "C", "species": [{"element": "C", "occu": 1}], "xyz": [2.525924, -0.276616, 0.09878], "properties": {}}, {"name": "C", "species": [{"element": "C", "occu": 1}], "xyz": [2.590325, 0.833335, 1.135845], "properties": {}}, {"name": "C", "species": [{"element": "C", "occu": 1}], "xyz": [0.594536, -0.476877, -2.724788], "properties": {}}, {"name": "C", "species": [{"element": "C", "occu": 1}], "xyz": [3.094367, -0.106213, -3.276287], "properties": {}}, {"name": "C", "species": [{"element": "C", "occu": 1}], "xyz": [2.963461, 0.395763, 2.543863], "properties": {}}, {"name": "H", "species": [{"element": "H", "occu": 1}], "xyz": [2.263045, -1.594477, -1.978871], "properties": {}}, {"name": "H", "species": [{"element": "H", "occu": 1}], "xyz": [3.327692, 1.567087, 0.80309], "properties": {}}, {"name": "H", "species": [{"element": "H", "occu": 1}], "xyz": [1.611052, 1.314919, 1.179774], "properties": {}}]}, "smiles": "FC(F)(OC(C(F)(F)F)C(F)(F)F)CC(F)(F)F", "inchi": "InChI=1S/C6H3F11O/c7-3(8,9)1-4(10,11)18-2(5(12,13)14)6(15,16)17/h2H,1H2", "formula_alphabetical": "C6 F11 H3 O1", "chemsys": "C-F-H-O", "energy": -1404.01992674, "esp": {"1": ["F", -0.226719], "2": ["F", -0.227186], "3": ["F", -0.159003], "4": ["F", -0.179552], "5": ["F", -0.165903], "6": ["F", -0.166071], "7": ["F", -0.179168], "8": ["F", -0.157963], "9": ["F", -0.203289], "10": ["F", -0.202467], "11": ["F", -0.217046], "12": ["O", -0.345493], "13": ["C", -0.152168], "14": ["C", 0.745625], "15": ["C", -0.575163], "16": ["C", 0.551542], "17": ["C", 0.55014], "18": ["C", 0.681984], "19": ["H", 0.18555], "20": ["H", 0.221129], "21": ["H", 0.221222]}, "dipole_moment": {"X": -0.1627, "Y": 0.7362, "Z": -0.258, "Tot": 0.7969}, "functional": "B3LYP", "basis": "6-31+G*", "phase": "gas", "tag": "lis", "state": "successful", "wall_time (s)": 16.626432199031115, "version": "0.0.1", "gauss_version": "ES64L-G16RevC.01", "last_updated": "2021-09-09 18:42:49.601000", "polarizability": 83.61, "fluorinated-solvent": "11522280", "run_ids": ["613a4ae48f3beb8149b11e58", "613a55a5163a1c5d6e992fbb"]}