{"_id": "614113a93bebb8cd20f3f397", "molecule": {"@module": "pymatgen.core.structure", "@class": "Molecule", "charge": 0, "spin_multiplicity": 1, "sites": [{"name": "F", "species": [{"element": "F", "occu": 1}], "xyz": [0.487242, 0.495931, 0.480693], "properties": {}}, {"name": "F", "species": [{"element": "F", "occu": 1}], "xyz": [1.949191, 0.049274, -1.080002], "properties": {}}, {"name": "F", "species": [{"element": "F", "occu": 1}], "xyz": [1.487178, -1.293804, 2.143464], "properties": {}}, {"name": "F", "species": [{"element": "F", "occu": 1}], "xyz": [0.203962, -3.524533, 1.047412], "properties": {}}, {"name": "F", "species": [{"element": "F", "occu": 1}], "xyz": [-0.244882, -1.906798, -0.356886], "properties": {}}, {"name": "F", "species": [{"element": "F", "occu": 1}], "xyz": [3.793428, 3.102138, 2.217591], "properties": {}}, {"name": "F", "species": [{"element": "F", "occu": 1}], "xyz": [4.750886, 2.816626, 0.264265], "properties": {}}, {"name": "F", "species": [{"element": "F", "occu": 1}], "xyz": [1.132375, -3.296638, -2.370824], "properties": {}}, {"name": "F", "species": [{"element": "F", "occu": 1}], "xyz": [2.367473, 5.093492, 1.130134], "properties": {}}, {"name": "O", "species": [{"element": "O", "occu": 1}], "xyz": [2.632802, 1.060135, 0.811561], "properties": {}}, {"name": "O", "species": [{"element": "O", "occu": 1}], "xyz": [1.919083, -2.35665, 0.15123], "properties": {}}, {"name": "O", "species": [{"element": "O", "occu": 1}], "xyz": [3.5569, 4.573653, 0.505974], "properties": {}}, {"name": "C", "species": [{"element": "C", "occu": 1}], "xyz": [1.785058, 0.136075, 0.276062], "properties": {}}, {"name": "C", "species": [{"element": "C", "occu": 1}], "xyz": [2.146261, -1.226065, 0.942221], "properties": {}}, {"name": "C", "species": [{"element": "C", "occu": 1}], "xyz": [2.407591, 2.416014, 0.412824], "properties": {}}, {"name": "C", "species": [{"element": "C", "occu": 1}], "xyz": [0.663689, -2.878135, -0.071357], "properties": {}}, {"name": "C", "species": [{"element": "C", "occu": 1}], "xyz": [3.615877, 3.210085, 0.884244], "properties": {}}, {"name": "C", "species": [{"element": "C", "occu": 1}], "xyz": [0.733172, -3.907096, -1.193027], "properties": {}}, {"name": "H", "species": [{"element": "H", "occu": 1}], "xyz": [3.221936, -1.229425, 1.125933], "properties": {}}, {"name": "H", "species": [{"element": "H", "occu": 1}], "xyz": [2.344485, 2.502448, -0.675373], "properties": {}}, {"name": "H", "species": [{"element": "H", "occu": 1}], "xyz": [1.503958, 2.811353, 0.880509], "properties": {}}, {"name": "H", "species": [{"element": "H", "occu": 1}], "xyz": [1.457551, -4.680852, -0.925434], "properties": {}}, {"name": "H", "species": [{"element": "H", "occu": 1}], "xyz": [-0.263756, -4.334549, -1.330355], "properties": {}}]}, "smiles": "FC(F)(OCC(F)(F)OF)[C@@H](F)OC(F)(F)CF", "inchi": "InChI=1S/C6H5F9O3/c7-1-4(9,10)17-3(8)6(13,14)16-2-5(11,12)18-15/h3H,1-2H2/t3-/m0/s1", "formula_alphabetical": "C6 F9 H5 O3", "chemsys": "C-F-H-O", "energy": -1355.81762482, "esp": {"1": ["F", -0.161194], "2": ["F", -0.176647], "3": ["F", -0.203211], "4": ["F", -0.206679], "5": ["F", -0.16634], "6": ["F", -0.172471], "7": ["F", -0.150063], "8": ["F", -0.200716], "9": ["F", -0.064258], "10": ["O", -0.345375], "11": ["O", -0.349283], "12": ["O", -0.15331], "13": ["C", 0.420048], "14": ["C", 0.370166], "15": ["C", -0.068652], "16": ["C", 0.477287], "17": ["C", 0.530364], "18": ["C", -0.044285], "19": ["H", 0.104041], "20": ["H", 0.134208], "21": ["H", 0.150175], "22": ["H", 0.137846], "23": ["H", 0.138348]}, "dipole_moment": {"X": 0.1173, "Y": -1.5276, "Z": -0.6423, "Tot": 1.6613}, "functional": "B3LYP", "basis": "6-31+G*", "phase": "gas", "tag": "lis", "state": "successful", "wall_time (s)": 19.678411631961353, "version": "0.0.1", "gauss_version": "ES64L-G16RevC.01", "last_updated": "2021-09-14 21:27:05.040000", "polarizability": 93.47, "fluorinated-solvent": "124083952", "run_ids": ["614112f6b820511265c9f1e2", "61411354f558d84d7666de31"]}