{"_id": "613a56dde6adda6277ae2a7b", "molecule": {"@module": "pymatgen.core.structure", "@class": "Molecule", "charge": 0, "spin_multiplicity": 1, "sites": [{"name": "F", "species": [{"element": "F", "occu": 1}], "xyz": [1.039858, 0.001056, -0.482581], "properties": {}}, {"name": "F", "species": [{"element": "F", "occu": 1}], "xyz": [2.407257, 0.680474, 1.082867], "properties": {}}, {"name": "F", "species": [{"element": "F", "occu": 1}], "xyz": [2.731257, -4.040518, -0.204848], "properties": {}}, {"name": "F", "species": [{"element": "F", "occu": 1}], "xyz": [4.09651, -3.365273, 1.355084], "properties": {}}, {"name": "F", "species": [{"element": "F", "occu": 1}], "xyz": [2.157995, -4.218453, 1.897457], "properties": {}}, {"name": "O", "species": [{"element": "O", "occu": 1}], "xyz": [2.831581, -1.266904, 0.030052], "properties": {}}, {"name": "C", "species": [{"element": "C", "occu": 1}], "xyz": [2.134222, -2.063849, 0.985573], "properties": {}}, {"name": "C", "species": [{"element": "C", "occu": 1}], "xyz": [2.37956, 0.012411, -0.130364], "properties": {}}, {"name": "C", "species": [{"element": "C", "occu": 1}], "xyz": [2.796948, -3.429939, 0.996903], "properties": {}}, {"name": "C", "species": [{"element": "C", "occu": 1}], "xyz": [3.195168, 0.746142, -1.161264], "properties": {}}, {"name": "H", "species": [{"element": "H", "occu": 1}], "xyz": [2.207941, -1.634901, 1.988984], "properties": {}}, {"name": "H", "species": [{"element": "H", "occu": 1}], "xyz": [1.08452, -2.190589, 0.705714], "properties": {}}, {"name": "H", "species": [{"element": "H", "occu": 1}], "xyz": [3.122577, 0.223797, -2.117833], "properties": {}}, {"name": "H", "species": [{"element": "H", "occu": 1}], "xyz": [2.80723, 1.761943, -1.263358], "properties": {}}, {"name": "H", "species": [{"element": "H", "occu": 1}], "xyz": [4.238678, 0.778453, -0.840046], "properties": {}}]}, "smiles": "FC(F)(OCC(F)(F)F)C", "inchi": "InChI=1S/C4H5F5O/c1-3(5,6)10-2-4(7,8)9/h2H2,1H3", "formula_alphabetical": "C4 F5 H5 O1", "chemsys": "C-F-H-O", "energy": -729.92595375, "esp": {"1": ["F", -0.275478], "2": ["F", -0.274412], "3": ["F", -0.192666], "4": ["F", -0.192761], "5": ["F", -0.227426], "6": ["O", -0.361274], "7": ["C", -0.176539], "8": ["C", 0.792551], "9": ["C", 0.630091], "10": ["C", -0.562595], "11": ["H", 0.157032], "12": ["H", 0.158644], "13": ["H", 0.175698], "14": ["H", 0.173964], "15": ["H", 0.175172]}, "dipole_moment": {"X": -0.0094, "Y": 1.5469, "Z": -0.6592, "Tot": 1.6815}, "functional": "B3LYP", "basis": "6-31+G*", "phase": "gas", "tag": "lis", "state": "successful", "wall_time (s)": 12.691533306002384, "version": "0.0.1", "gauss_version": "ES64L-G16RevC.01", "last_updated": "2021-09-09 18:47:57.482000", "polarizability": 56.3, "fluorinated-solvent": "11840937", "run_ids": ["613a4af7bc4f47d003a65e14", "613a56cfe348a5b21d86e866"]}