{"_id": "61410bab684efc23c34db92f", "molecule": {"@module": "pymatgen.core.structure", "@class": "Molecule", "charge": 0, "spin_multiplicity": 1, "sites": [{"name": "F", "species": [{"element": "F", "occu": 1}], "xyz": [3.250899, -0.645495, -0.781857], "properties": {}}, {"name": "F", "species": [{"element": "F", "occu": 1}], "xyz": [1.160748, -0.087058, -0.358474], "properties": {}}, {"name": "F", "species": [{"element": "F", "occu": 1}], "xyz": [2.662369, 1.957636, -1.378388], "properties": {}}, {"name": "F", "species": [{"element": "F", "occu": 1}], "xyz": [2.026223, 2.3259, 0.677958], "properties": {}}, {"name": "F", "species": [{"element": "F", "occu": 1}], "xyz": [4.097185, 1.772477, 0.257416], "properties": {}}, {"name": "F", "species": [{"element": "F", "occu": 1}], "xyz": [3.597981, -2.319127, 3.228984], "properties": {}}, {"name": "F", "species": [{"element": "F", "occu": 1}], "xyz": [1.522523, -1.766081, 3.639515], "properties": {}}, {"name": "O", "species": [{"element": "O", "occu": 1}], "xyz": [2.245128, -1.792846, 1.504402], "properties": {}}, {"name": "C", "species": [{"element": "C", "occu": 1}], "xyz": [2.449087, 0.065563, 0.061214], "properties": {}}, {"name": "C", "species": [{"element": "C", "occu": 1}], "xyz": [2.611461, -0.41424, 1.495971], "properties": {}}, {"name": "C", "species": [{"element": "C", "occu": 1}], "xyz": [2.815308, 1.564979, -0.108527], "properties": {}}, {"name": "C", "species": [{"element": "C", "occu": 1}], "xyz": [2.316203, -2.423993, 2.714258], "properties": {}}, {"name": "C", "species": [{"element": "C", "occu": 1}], "xyz": [1.907237, -3.867576, 2.591865], "properties": {}}, {"name": "H", "species": [{"element": "H", "occu": 1}], "xyz": [3.653434, -0.284311, 1.802607], "properties": {}}, {"name": "H", "species": [{"element": "H", "occu": 1}], "xyz": [1.953796, 0.169556, 2.14655], "properties": {}}, {"name": "H", "species": [{"element": "H", "occu": 1}], "xyz": [0.879805, -3.921845, 2.225069], "properties": {}}, {"name": "H", "species": [{"element": "H", "occu": 1}], "xyz": [2.573847, -4.373386, 1.889805], "properties": {}}, {"name": "H", "species": [{"element": "H", "occu": 1}], "xyz": [1.975664, -4.340143, 3.574105], "properties": {}}]}, "smiles": "FC(F)(COC(F)(F)C)C(F)(F)F", "inchi": "InChI=1S/C5H5F7O/c1-3(6,7)13-2-4(8,9)5(10,11)12/h2H2,1H3", "formula_alphabetical": "C5 F7 H5 O1", "chemsys": "C-F-H-O", "energy": -967.720034759, "esp": {"1": ["F", -0.16486], "2": ["F", -0.163791], "3": ["F", -0.137681], "4": ["F", -0.164835], "5": ["F", -0.163108], "6": ["F", -0.254985], "7": ["F", -0.257576], "8": ["O", -0.309914], "9": ["C", 0.291699], "10": ["C", -0.054294], "11": ["C", 0.44963], "12": ["C", 0.697088], "13": ["C", -0.54631], "14": ["H", 0.122387], "15": ["H", 0.128788], "16": ["H", 0.174442], "17": ["H", 0.174499], "18": ["H", 0.178823]}, "dipole_moment": {"X": -0.1526, "Y": -1.3518, "Z": 1.007, "Tot": 1.6926}, "functional": "B3LYP", "basis": "6-31+G*", "phase": "gas", "tag": "lis", "state": "successful", "wall_time (s)": 9.552038165042177, "version": "0.0.1", "gauss_version": "ES64L-G16RevC.01", "last_updated": "2021-09-14 20:52:59.245000", "polarizability": 69.46, "fluorinated-solvent": "95757058", "run_ids": ["61410a51fe3a553a21558bb7", "61410afcb96e2b506da39183"]}