{"_id": "613a4fe7acf5ba58f64ff696", "molecule": {"@module": "pymatgen.core.structure", "@class": "Molecule", "charge": 0, "spin_multiplicity": 1, "sites": [{"name": "F", "species": [{"element": "F", "occu": 1}], "xyz": [0.871767, 0.169932, 0.074022], "properties": {}}, {"name": "F", "species": [{"element": "F", "occu": 1}], "xyz": [2.611732, 1.261698, 0.822849], "properties": {}}, {"name": "F", "species": [{"element": "F", "occu": 1}], "xyz": [2.938137, -0.700597, -3.514348], "properties": {}}, {"name": "F", "species": [{"element": "F", "occu": 1}], "xyz": [2.202408, -3.562943, 1.435984], "properties": {}}, {"name": "F", "species": [{"element": "F", "occu": 1}], "xyz": [4.146416, -2.828676, 2.095643], "properties": {}}, {"name": "F", "species": [{"element": "F", "occu": 1}], "xyz": [2.490564, -2.957159, 3.517557], "properties": {}}, {"name": "O", "species": [{"element": "O", "occu": 1}], "xyz": [2.748026, -0.969723, 0.579501], "properties": {}}, {"name": "C", "species": [{"element": "C", "occu": 1}], "xyz": [2.761238, 0.365107, -1.390509], "properties": {}}, {"name": "C", "species": [{"element": "C", "occu": 1}], "xyz": [2.257957, 0.183206, 0.035621], "properties": {}}, {"name": "C", "species": [{"element": "C", "occu": 1}], "xyz": [2.359158, -0.843571, -2.241952], "properties": {}}, {"name": "C", "species": [{"element": "C", "occu": 1}], "xyz": [2.264814, 1.68375, -1.996425], "properties": {}}, {"name": "C", "species": [{"element": "C", "occu": 1}], "xyz": [2.378068, -1.240218, 1.931394], "properties": {}}, {"name": "C", "species": [{"element": "C", "occu": 1}], "xyz": [2.814613, -2.662864, 2.23449], "properties": {}}, {"name": "H", "species": [{"element": "H", "occu": 1}], "xyz": [3.855484, 0.376237, -1.318888], "properties": {}}, {"name": "H", "species": [{"element": "H", "occu": 1}], "xyz": [2.72506, -1.782424, -1.819198], "properties": {}}, {"name": "H", "species": [{"element": "H", "occu": 1}], "xyz": [1.273773, -0.892314, -2.37997], "properties": {}}, {"name": "H", "species": [{"element": "H", "occu": 1}], "xyz": [2.599626, 2.539671, -1.403772], "properties": {}}, {"name": "H", "species": [{"element": "H", "occu": 1}], "xyz": [2.659006, 1.785831, -3.01081], "properties": {}}, {"name": "H", "species": [{"element": "H", "occu": 1}], "xyz": [1.170714, 1.703236, -2.047069], "properties": {}}, {"name": "H", "species": [{"element": "H", "occu": 1}], "xyz": [2.88875, -0.561922, 2.620611], "properties": {}}, {"name": "H", "species": [{"element": "H", "occu": 1}], "xyz": [1.295397, -1.174818, 2.069036], "properties": {}}]}, "smiles": "FC(F)(OCC(F)(F)F)[C@@H](CF)C", "inchi": "InChI=1S/C6H8F6O/c1-4(2-7)6(11,12)13-3-5(8,9)10/h4H,2-3H2,1H3/t4-/m1/s1", "formula_alphabetical": "C6 F6 H8 O1", "chemsys": "C-F-H-O", "energy": -907.790588472, "esp": {"1": ["F", -0.201883], "2": ["F", -0.187085], "3": ["F", -0.271782], "4": ["F", -0.200936], "5": ["F", -0.199141], "6": ["F", -0.232772], "7": ["O", -0.315728], "8": ["C", 0.075221], "9": ["C", 0.387248], "10": ["C", 0.118139], "11": ["C", -0.35484], "12": ["C", -0.150778], "13": ["C", 0.653365], "14": ["H", 0.089732], "15": ["H", 0.065202], "16": ["H", 0.077365], "17": ["H", 0.104664], "18": ["H", 0.12115], "19": ["H", 0.111352], "20": ["H", 0.156913], "21": ["H", 0.154594]}, "dipole_moment": {"X": -0.6716, "Y": 1.3586, "Z": 0.843, "Tot": 1.7342}, "functional": "B3LYP", "basis": "6-31+G*", "phase": "gas", "tag": "lis", "state": "successful", "wall_time (s)": 11.689446828000655, "version": "0.0.1", "gauss_version": "ES64L-G16RevC.01", "last_updated": "2021-09-09 18:18:14.870000", "polarizability": 79.42, "fluorinated-solvent": "22894525", "run_ids": ["613a4a8c7e1f9105097569f5", "613a4fe3bfbf283eab7bdc28"]}