{"_id": "6141199cbc9873aaeaac0224", "molecule": {"@module": "pymatgen.core.structure", "@class": "Molecule", "charge": 0, "spin_multiplicity": 1, "sites": [{"name": "F", "species": [{"element": "F", "occu": 1}], "xyz": [1.459515, -0.740312, -0.326273], "properties": {}}, {"name": "F", "species": [{"element": "F", "occu": 1}], "xyz": [3.582507, -0.563726, -0.930534], "properties": {}}, {"name": "F", "species": [{"element": "F", "occu": 1}], "xyz": [-1.67925, 2.952348, 2.315605], "properties": {}}, {"name": "F", "species": [{"element": "F", "occu": 1}], "xyz": [-2.020244, 0.854223, 2.812542], "properties": {}}, {"name": "F", "species": [{"element": "F", "occu": 1}], "xyz": [-1.735954, 2.320681, 4.405591], "properties": {}}, {"name": "O", "species": [{"element": "O", "occu": 1}], "xyz": [2.092404, 1.102129, 1.910202], "properties": {}}, {"name": "C", "species": [{"element": "C", "occu": 1}], "xyz": [0.687014, 1.31251, 1.764421], "properties": {}}, {"name": "C", "species": [{"element": "C", "occu": 1}], "xyz": [0.177096, 1.712184, 3.146304], "properties": {}}, {"name": "C", "species": [{"element": "C", "occu": 1}], "xyz": [2.812324, 0.918209, 0.707321], "properties": {}}, {"name": "C", "species": [{"element": "C", "occu": 1}], "xyz": [2.738849, -0.512531, 0.169258], "properties": {}}, {"name": "C", "species": [{"element": "C", "occu": 1}], "xyz": [-1.313203, 1.958904, 3.168832], "properties": {}}, {"name": "C", "species": [{"element": "C", "occu": 1}], "xyz": [3.093228, -1.614283, 1.13663], "properties": {}}, {"name": "H", "species": [{"element": "H", "occu": 1}], "xyz": [0.500024, 2.113037, 1.034246], "properties": {}}, {"name": "H", "species": [{"element": "H", "occu": 1}], "xyz": [0.187229, 0.403623, 1.410682], "properties": {}}, {"name": "H", "species": [{"element": "H", "occu": 1}], "xyz": [0.394187, 0.920949, 3.870402], "properties": {}}, {"name": "H", "species": [{"element": "H", "occu": 1}], "xyz": [0.673985, 2.626895, 3.483053], "properties": {}}, {"name": "H", "species": [{"element": "H", "occu": 1}], "xyz": [3.859541, 1.138776, 0.933567], "properties": {}}, {"name": "H", "species": [{"element": "H", "occu": 1}], "xyz": [2.469052, 1.599218, -0.084861], "properties": {}}, {"name": "H", "species": [{"element": "H", "occu": 1}], "xyz": [2.427518, -1.571123, 2.002088], "properties": {}}, {"name": "H", "species": [{"element": "H", "occu": 1}], "xyz": [2.987267, -2.580485, 0.636154], "properties": {}}, {"name": "H", "species": [{"element": "H", "occu": 1}], "xyz": [4.125771, -1.491426, 1.476109], "properties": {}}]}, "smiles": "FC(F)(COCCC(F)(F)F)C", "inchi": "InChI=1S/C6H9F5O/c1-5(7,8)4-12-3-2-6(9,10)11/h2-4H2,1H3", "formula_alphabetical": "C6 F5 H9 O1", "chemsys": "C-F-H-O", "energy": -808.545799396, "esp": {"1": ["F", -0.292279], "2": ["F", -0.306916], "3": ["F", -0.241653], "4": ["F", -0.236214], "5": ["F", -0.230667], "6": ["O", -0.415672], "7": ["C", 0.40845], "8": ["C", -0.444419], "9": ["C", -0.132103], "10": ["C", 0.665275], "11": ["C", 0.703348], "12": ["C", -0.41708], "13": ["H", 0.005976], "14": ["H", 0.000634], "15": ["H", 0.150989], "16": ["H", 0.154159], "17": ["H", 0.134148], "18": ["H", 0.100091], "19": ["H", 0.131762], "20": ["H", 0.142204], "21": ["H", 0.119967]}, "dipole_moment": {"X": 2.3744, "Y": -0.1664, "Z": 1.0306, "Tot": 2.5938}, "functional": "B3LYP", "basis": "6-31+G*", "phase": "gas", "tag": "lis", "state": "successful", "wall_time (s)": 10.088675835984759, "version": "0.0.1", "gauss_version": "ES64L-G16RevC.01", "last_updated": "2021-09-14 21:52:28.413000", "polarizability": 79.09, "fluorinated-solvent": "140490667", "run_ids": ["6141198142feff74b6b69ddc", "614119979a17ee251f21d90e"]}