{"_id": "613a4d657801dac155febea3", "molecule": {"@module": "pymatgen.core.structure", "@class": "Molecule", "charge": 0, "spin_multiplicity": 1, "sites": [{"name": "F", "species": [{"element": "F", "occu": 1}], "xyz": [1.146457, 0.334652, -0.069645], "properties": {}}, {"name": "F", "species": [{"element": "F", "occu": 1}], "xyz": [2.931099, 0.906948, 1.056484], "properties": {}}, {"name": "F", "species": [{"element": "F", "occu": 1}], "xyz": [2.674874, 0.027185, -2.367447], "properties": {}}, {"name": "F", "species": [{"element": "F", "occu": 1}], "xyz": [2.899699, 2.008643, -1.415819], "properties": {}}, {"name": "F", "species": [{"element": "F", "occu": 1}], "xyz": [2.899195, -3.909831, 0.319856], "properties": {}}, {"name": "F", "species": [{"element": "F", "occu": 1}], "xyz": [4.30006, -2.91132, 1.713124], "properties": {}}, {"name": "O", "species": [{"element": "O", "occu": 1}], "xyz": [2.829526, -1.151495, 0.142307], "properties": {}}, {"name": "C", "species": [{"element": "C", "occu": 1}], "xyz": [2.500449, 0.149789, -0.00912], "properties": {}}, {"name": "C", "species": [{"element": "C", "occu": 1}], "xyz": [2.236644, -1.831093, 1.257783], "properties": {}}, {"name": "C", "species": [{"element": "C", "occu": 1}], "xyz": [3.178897, 0.682746, -1.286867], "properties": {}}, {"name": "C", "species": [{"element": "C", "occu": 1}], "xyz": [2.973746, -3.140864, 1.451174], "properties": {}}, {"name": "H", "species": [{"element": "H", "occu": 1}], "xyz": [2.332529, -1.232589, 2.169476], "properties": {}}, {"name": "H", "species": [{"element": "H", "occu": 1}], "xyz": [1.180609, -2.034949, 1.053513], "properties": {}}, {"name": "H", "species": [{"element": "H", "occu": 1}], "xyz": [4.262025, 0.539484, -1.245392], "properties": {}}, {"name": "H", "species": [{"element": "H", "occu": 1}], "xyz": [2.556551, -3.717646, 2.284472], "properties": {}}]}, "smiles": "FC(F)(OCC(F)F)C(F)F", "inchi": "InChI=1S/C4H4F6O/c5-2(6)1-11-4(9,10)3(7)8/h2-3H,1H2", "formula_alphabetical": "C4 F6 H4 O1", "chemsys": "C-F-H-O", "energy": -829.141114125, "esp": {"1": ["F", -0.149528], "2": ["F", -0.187558], "3": ["F", -0.186285], "4": ["F", -0.189166], "5": ["F", -0.221627], "6": ["F", -0.225515], "7": ["O", -0.247575], "8": ["C", 0.35627], "9": ["C", -0.132965], "10": ["C", 0.292329], "11": ["C", 0.414129], "12": ["H", 0.142487], "13": ["H", 0.142499], "14": ["H", 0.125725], "15": ["H", 0.066778]}, "dipole_moment": {"X": -0.5472, "Y": -1.184, "Z": 2.5516, "Tot": 2.8657}, "functional": "B3LYP", "basis": "6-31+G*", "phase": "gas", "tag": "lis", "state": "successful", "wall_time (s)": 7.262737161945552, "version": "0.0.1", "gauss_version": "ES64L-G16RevC.01", "last_updated": "2021-09-09 18:07:32.992000", "polarizability": 57.4, "fluorinated-solvent": "12009929", "run_ids": ["613a49f3a60b81566ef8d498", "613a4d57413e53871a2ccb41"]}