{"_id": "613a4d2da68e62c4bf74d9f5", "molecule": {"@module": "pymatgen.core.structure", "@class": "Molecule", "charge": 0, "spin_multiplicity": 1, "sites": [{"name": "F", "species": [{"element": "F", "occu": 1}], "xyz": [1.179305, -0.049418, -0.174569], "properties": {}}, {"name": "F", "species": [{"element": "F", "occu": 1}], "xyz": [2.908547, 1.28235, -0.530686], "properties": {}}, {"name": "F", "species": [{"element": "F", "occu": 1}], "xyz": [2.800688, -0.798864, -2.269634], "properties": {}}, {"name": "F", "species": [{"element": "F", "occu": 1}], "xyz": [4.510457, -0.986056, -0.875065], "properties": {}}, {"name": "F", "species": [{"element": "F", "occu": 1}], "xyz": [4.055626, -1.429281, 3.642948], "properties": {}}, {"name": "O", "species": [{"element": "O", "occu": 1}], "xyz": [2.649315, -1.363305, 1.836876], "properties": {}}, {"name": "C", "species": [{"element": "C", "occu": 1}], "xyz": [2.543645, 0.047964, -0.068794], "properties": {}}, {"name": "C", "species": [{"element": "C", "occu": 1}], "xyz": [2.961955, -0.047404, 1.389796], "properties": {}}, {"name": "C", "species": [{"element": "C", "occu": 1}], "xyz": [3.146067, -1.040458, -0.975134], "properties": {}}, {"name": "C", "species": [{"element": "C", "occu": 1}], "xyz": [2.730931, -1.545917, 3.203411], "properties": {}}, {"name": "H", "species": [{"element": "H", "occu": 1}], "xyz": [4.034832, 0.151716, 1.470947], "properties": {}}, {"name": "H", "species": [{"element": "H", "occu": 1}], "xyz": [2.39972, 0.711534, 1.950964], "properties": {}}, {"name": "H", "species": [{"element": "H", "occu": 1}], "xyz": [2.80546, -2.037579, -0.688042], "properties": {}}, {"name": "H", "species": [{"element": "H", "occu": 1}], "xyz": [2.156416, -0.789922, 3.756048], "properties": {}}, {"name": "H", "species": [{"element": "H", "occu": 1}], "xyz": [2.394955, -2.562629, 3.413216], "properties": {}}]}, "smiles": "FC(F)(COCF)C(F)F", "inchi": "InChI=1S/C4H5F5O/c5-2-10-1-4(8,9)3(6)7/h3H,1-2H2", "formula_alphabetical": "C4 F5 H5 O1", "chemsys": "C-F-H-O", "energy": -729.889766684, "esp": {"1": ["F", -0.1775], "2": ["F", -0.165557], "3": ["F", -0.200408], "4": ["F", -0.2004], "5": ["F", -0.270941], "6": ["O", -0.324769], "7": ["C", 0.25031], "8": ["C", -0.174179], "9": ["C", 0.361506], "10": ["C", 0.333632], "11": ["H", 0.168856], "12": ["H", 0.184319], "13": ["H", 0.099852], "14": ["H", 0.03814], "15": ["H", 0.077138]}, "dipole_moment": {"X": -1.3502, "Y": -0.7905, "Z": 2.6679, "Tot": 3.0928}, "functional": "B3LYP", "basis": "6-31+G*", "phase": "gas", "tag": "lis", "state": "successful", "wall_time (s)": 7.224610709003173, "version": "0.0.1", "gauss_version": "ES64L-G16RevC.01", "last_updated": "2021-09-09 18:06:37.102000", "polarizability": 56.3, "fluorinated-solvent": "19063505", "run_ids": ["613a48dad7480079fe63b816", "613a4b8808313e9b12023c01"]}