{"_id": "6141131fe73ffc519911ad51", "molecule": {"@module": "pymatgen.core.structure", "@class": "Molecule", "charge": 0, "spin_multiplicity": 1, "sites": [{"name": "F", "species": [{"element": "F", "occu": 1}], "xyz": [1.075139, 0.222606, -0.63605], "properties": {}}, {"name": "F", "species": [{"element": "F", "occu": 1}], "xyz": [2.182806, 0.004258, 1.235294], "properties": {}}, {"name": "F", "species": [{"element": "F", "occu": 1}], "xyz": [2.620744, 2.392678, -0.019383], "properties": {}}, {"name": "F", "species": [{"element": "F", "occu": 1}], "xyz": [4.423557, 1.164511, 0.045035], "properties": {}}, {"name": "F", "species": [{"element": "F", "occu": 1}], "xyz": [3.318756, 1.387085, -1.825692], "properties": {}}, {"name": "F", "species": [{"element": "F", "occu": 1}], "xyz": [2.772711, -3.313733, -2.437059], "properties": {}}, {"name": "O", "species": [{"element": "O", "occu": 1}], "xyz": [2.924445, -1.069972, -0.604383], "properties": {}}, {"name": "C", "species": [{"element": "C", "occu": 1}], "xyz": [2.333733, 0.036772, -0.12884], "properties": {}}, {"name": "C", "species": [{"element": "C", "occu": 1}], "xyz": [3.197919, 1.276785, -0.494194], "properties": {}}, {"name": "C", "species": [{"element": "C", "occu": 1}], "xyz": [2.263936, -2.329098, -0.324146], "properties": {}}, {"name": "C", "species": [{"element": "C", "occu": 1}], "xyz": [3.013755, -3.410037, -1.063254], "properties": {}}, {"name": "H", "species": [{"element": "H", "occu": 1}], "xyz": [2.297283, -2.518875, 0.754762], "properties": {}}, {"name": "H", "species": [{"element": "H", "occu": 1}], "xyz": [1.224742, -2.281731, -0.663049], "properties": {}}, {"name": "H", "species": [{"element": "H", "occu": 1}], "xyz": [4.09338, -3.320785, -0.904447], "properties": {}}, {"name": "H", "species": [{"element": "H", "occu": 1}], "xyz": [2.665133, -4.394123, -0.729275], "properties": {}}]}, "smiles": "FC(F)(OCCF)C(F)(F)F", "inchi": "InChI=1S/C4H4F6O/c5-1-2-11-4(9,10)3(6,7)8/h1-2H2", "formula_alphabetical": "C4 F6 H4 O1", "chemsys": "C-F-H-O", "energy": -829.144891743, "esp": {"1": ["F", -0.155718], "2": ["F", -0.162858], "3": ["F", -0.163574], "4": ["F", -0.169571], "5": ["F", -0.160803], "6": ["F", -0.250356], "7": ["O", -0.280798], "8": ["C", 0.277213], "9": ["C", 0.53084], "10": ["C", 0.127216], "11": ["C", 0.088292], "12": ["H", 0.059992], "13": ["H", 0.100299], "14": ["H", 0.089224], "15": ["H", 0.0706]}, "dipole_moment": {"X": -0.1352, "Y": -2.9294, "Z": 1.8282, "Tot": 3.4557}, "functional": "B3LYP", "basis": "6-31+G*", "phase": "gas", "tag": "lis", "state": "successful", "wall_time (s)": 7.950658975052647, "version": "0.0.1", "gauss_version": "ES64L-G16RevC.01", "last_updated": "2021-09-14 21:24:46.819000", "polarizability": 57.64, "fluorinated-solvent": "101162529", "run_ids": ["614112530f58706e8d7c4502", "614112cb907f56481077131f"]}