{"_id": "6141148aeebf68a56dea61bc", "molecule": {"@module": "pymatgen.core.structure", "@class": "Molecule", "charge": 0, "spin_multiplicity": 1, "sites": [{"name": "F", "species": [{"element": "F", "occu": 1}], "xyz": [3.07067, 0.737219, 0.718085], "properties": {}}, {"name": "F", "species": [{"element": "F", "occu": 1}], "xyz": [1.125174, -0.041886, 0.033928], "properties": {}}, {"name": "F", "species": [{"element": "F", "occu": 1}], "xyz": [2.227921, -2.561138, -0.235689], "properties": {}}, {"name": "F", "species": [{"element": "F", "occu": 1}], "xyz": [4.17533, -1.780981, 0.452258], "properties": {}}, {"name": "F", "species": [{"element": "F", "occu": 1}], "xyz": [3.732421, 1.049405, -3.846087], "properties": {}}, {"name": "F", "species": [{"element": "F", "occu": 1}], "xyz": [1.575926, 0.697628, -3.870282], "properties": {}}, {"name": "F", "species": [{"element": "F", "occu": 1}], "xyz": [3.374847, 3.649744, -3.024981], "properties": {}}, {"name": "F", "species": [{"element": "F", "occu": 1}], "xyz": [1.976311, 4.682749, -5.05052], "properties": {}}, {"name": "F", "species": [{"element": "F", "occu": 1}], "xyz": [3.07793, 2.947818, -5.775239], "properties": {}}, {"name": "F", "species": [{"element": "F", "occu": 1}], "xyz": [0.923526, 2.812583, -5.437491], "properties": {}}, {"name": "O", "species": [{"element": "O", "occu": 1}], "xyz": [2.577051, 1.231334, -1.924466], "properties": {}}, {"name": "C", "species": [{"element": "C", "occu": 1}], "xyz": [2.480326, -0.226594, -0.055464], "properties": {}}, {"name": "C", "species": [{"element": "C", "occu": 1}], "xyz": [2.932745, -0.09351, -1.50119], "properties": {}}, {"name": "C", "species": [{"element": "C", "occu": 1}], "xyz": [2.812765, -1.605329, 0.568275], "properties": {}}, {"name": "C", "species": [{"element": "C", "occu": 1}], "xyz": [2.559734, 1.44196, -3.260947], "properties": {}}, {"name": "C", "species": [{"element": "C", "occu": 1}], "xyz": [2.293568, 2.939846, -3.501413], "properties": {}}, {"name": "C", "species": [{"element": "C", "occu": 1}], "xyz": [2.074937, 3.339284, -4.97253], "properties": {}}, {"name": "C", "species": [{"element": "C", "occu": 1}], "xyz": [2.379263, -1.784386, 1.999482], "properties": {}}, {"name": "H", "species": [{"element": "H", "occu": 1}], "xyz": [4.014659, -0.230371, -1.561043], "properties": {}}, {"name": "H", "species": [{"element": "H", "occu": 1}], "xyz": [2.421335, -0.847415, -2.104247], "properties": {}}, {"name": "H", "species": [{"element": "H", "occu": 1}], "xyz": [1.399267, 3.224002, -2.939544], "properties": {}}, {"name": "H", "species": [{"element": "H", "occu": 1}], "xyz": [2.868893, -1.039554, 2.630879], "properties": {}}, {"name": "H", "species": [{"element": "H", "occu": 1}], "xyz": [1.29534, -1.672671, 2.075455], "properties": {}}, {"name": "H", "species": [{"element": "H", "occu": 1}], "xyz": [2.669124, -2.787778, 2.322209], "properties": {}}]}, "smiles": "FC(F)(COC(F)(F)[C@@H](F)C(F)(F)F)C(F)(F)C", "inchi": "InChI=1S/C7H6F10O/c1-4(9,10)5(11,12)2-18-7(16,17)3(8)6(13,14)15/h3H,2H2,1H3/t3-/m0/s1", "formula_alphabetical": "C7 F10 H6 O1", "chemsys": "C-F-H-O", "energy": -1344.07167993, "esp": {"1": ["F", -0.193774], "2": ["F", -0.198746], "3": ["F", -0.254666], "4": ["F", -0.256232], "5": ["F", -0.166556], "6": ["F", -0.188038], "7": ["F", -0.150265], "8": ["F", -0.187984], "9": ["F", -0.170239], "10": ["F", -0.200241], "11": ["O", -0.199048], "12": ["C", 0.343678], "13": ["C", -0.195792], "14": ["C", 0.560722], "15": ["C", 0.439994], "16": ["C", -0.12477], "17": ["C", 0.607659], "18": ["C", -0.46395], "19": ["H", 0.172325], "20": ["H", 0.167003], "21": ["H", 0.188845], "22": ["H", 0.151636], "23": ["H", 0.149836], "24": ["H", 0.168603]}, "dipole_moment": {"X": -0.8747, "Y": -1.7076, "Z": 2.8629, "Tot": 3.4463}, "functional": "B3LYP", "basis": "6-31+G*", "phase": "gas", "tag": "lis", "state": "successful", "wall_time (s)": 18.188180163037032, "version": "0.0.1", "gauss_version": "ES64L-G16RevC.01", "last_updated": "2021-09-14 21:30:50.516000", "polarizability": 94.73, "fluorinated-solvent": "58114591", "run_ids": ["614114207077789c750a9b07", "61411469b51412914b7e1c66"]}