{"_id": "61412349b3303f405635cc0b", "molecule": {"@module": "pymatgen.core.structure", "@class": "Molecule", "charge": 0, "spin_multiplicity": 1, "sites": [{"name": "F", "species": [{"element": "F", "occu": 1}], "xyz": [0.594358, -0.24526, -0.050934], "properties": {}}, {"name": "F", "species": [{"element": "F", "occu": 1}], "xyz": [2.14664, -1.369124, 1.002939], "properties": {}}, {"name": "F", "species": [{"element": "F", "occu": 1}], "xyz": [2.591238, -0.408598, -0.911176], "properties": {}}, {"name": "F", "species": [{"element": "F", "occu": 1}], "xyz": [3.043933, 5.788417, -2.336776], "properties": {}}, {"name": "O", "species": [{"element": "O", "occu": 1}], "xyz": [2.022169, 2.183025, 0.372198], "properties": {}}, {"name": "O", "species": [{"element": "O", "occu": 1}], "xyz": [3.41714, 4.42232, -2.023654], "properties": {}}, {"name": "C", "species": [{"element": "C", "occu": 1}], "xyz": [2.914981, 2.58707, -0.666496], "properties": {}}, {"name": "C", "species": [{"element": "C", "occu": 1}], "xyz": [2.340208, 0.981456, 1.027079], "properties": {}}, {"name": "C", "species": [{"element": "C", "occu": 1}], "xyz": [2.527429, 4.033774, -0.982026], "properties": {}}, {"name": "C", "species": [{"element": "C", "occu": 1}], "xyz": [1.907493, -0.263852, 0.253693], "properties": {}}, {"name": "H", "species": [{"element": "H", "occu": 1}], "xyz": [1.792859, 0.977686, 1.973343], "properties": {}}, {"name": "H", "species": [{"element": "H", "occu": 1}], "xyz": [3.416229, 0.886913, 1.232902], "properties": {}}, {"name": "H", "species": [{"element": "H", "occu": 1}], "xyz": [3.957615, 2.534375, -0.321241], "properties": {}}, {"name": "H", "species": [{"element": "H", "occu": 1}], "xyz": [2.805501, 1.956344, -1.555483], "properties": {}}, {"name": "H", "species": [{"element": "H", "occu": 1}], "xyz": [1.489782, 4.085315, -1.328862], "properties": {}}, {"name": "H", "species": [{"element": "H", "occu": 1}], "xyz": [2.667336, 4.672711, -0.10348], "properties": {}}]}, "smiles": "FC(F)(F)COCCOF", "inchi": "InChI=1S/C4H6F4O2/c5-4(6,7)3-9-1-2-10-8/h1-3H2", "formula_alphabetical": "C4 F4 H6 O2", "chemsys": "C-F-H-O", "energy": -705.752749998, "esp": {"1": ["F", -0.180674], "2": ["F", -0.227979], "3": ["F", -0.200175], "4": ["F", -0.098173], "5": ["O", -0.442754], "6": ["O", -0.22536], "7": ["C", 0.215877], "8": ["C", 0.031398], "9": ["C", 0.170904], "10": ["C", 0.558131], "11": ["H", 0.119457], "12": ["H", 0.076226], "13": ["H", 0.045311], "14": ["H", 0.043873], "15": ["H", 0.062799], "16": ["H", 0.051138]}, "dipole_moment": {"X": 0.5993, "Y": -0.4183, "Z": 2.4014, "Tot": 2.5101}, "functional": "B3LYP", "basis": "6-31+G*", "phase": "gas", "tag": "lis", "state": "successful", "wall_time (s)": 7.1093238280154765, "version": "0.0.1", "gauss_version": "ES64L-G16RevC.01", "last_updated": "2021-09-14 22:33:45.749000", "polarizability": 63.19, "fluorinated-solvent": "89475011", "run_ids": ["6141233484357019d4130114", "614123416df594df5ae57985"]}