{"_id": "613a5298a926b7a3b9bc30e0", "molecule": {"@module": "pymatgen.core.structure", "@class": "Molecule", "charge": 0, "spin_multiplicity": 1, "sites": [{"name": "F", "species": [{"element": "F", "occu": 1}], "xyz": [2.458237, 1.799119, -2.868294], "properties": {}}, {"name": "F", "species": [{"element": "F", "occu": 1}], "xyz": [1.196615, 1.416138, -1.119914], "properties": {}}, {"name": "F", "species": [{"element": "F", "occu": 1}], "xyz": [4.60224, 2.407751, -1.186461], "properties": {}}, {"name": "F", "species": [{"element": "F", "occu": 1}], "xyz": [2.779796, 3.594807, -0.797174], "properties": {}}, {"name": "O", "species": [{"element": "O", "occu": 1}], "xyz": [3.027992, 0.139152, -1.446815], "properties": {}}, {"name": "C", "species": [{"element": "C", "occu": 1}], "xyz": [2.93487, -2.245951, -1.720044], "properties": {}}, {"name": "C", "species": [{"element": "C", "occu": 1}], "xyz": [2.422683, -0.916526, -2.251741], "properties": {}}, {"name": "C", "species": [{"element": "C", "occu": 1}], "xyz": [2.580846, -2.529005, -0.250512], "properties": {}}, {"name": "C", "species": [{"element": "C", "occu": 1}], "xyz": [2.504056, 1.369595, -1.567837], "properties": {}}, {"name": "C", "species": [{"element": "C", "occu": 1}], "xyz": [1.074093, -2.578307, 0.034368], "properties": {}}, {"name": "C", "species": [{"element": "C", "occu": 1}], "xyz": [3.326734, 2.350765, -0.710024], "properties": {}}, {"name": "H", "species": [{"element": "H", "occu": 1}], "xyz": [2.513519, -3.031881, -2.363438], "properties": {}}, {"name": "H", "species": [{"element": "H", "occu": 1}], "xyz": [4.024095, -2.277947, -1.851699], "properties": {}}, {"name": "H", "species": [{"element": "H", "occu": 1}], "xyz": [1.334441, -0.835694, -2.174344], "properties": {}}, {"name": "H", "species": [{"element": "H", "occu": 1}], "xyz": [2.718362, -0.759886, -3.293593], "properties": {}}, {"name": "H", "species": [{"element": "H", "occu": 1}], "xyz": [3.035595, -3.488483, 0.029074], "properties": {}}, {"name": "H", "species": [{"element": "H", "occu": 1}], "xyz": [3.051272, -1.766997, 0.383244], "properties": {}}, {"name": "H", "species": [{"element": "H", "occu": 1}], "xyz": [0.570115, -3.305354, -0.616363], "properties": {}}, {"name": "H", "species": [{"element": "H", "occu": 1}], "xyz": [0.883132, -2.873002, 1.072777], "properties": {}}, {"name": "H", "species": [{"element": "H", "occu": 1}], "xyz": [0.597369, -1.602988, -0.119281], "properties": {}}, {"name": "H", "species": [{"element": "H", "occu": 1}], "xyz": [3.34576, 2.035854, 0.336884], "properties": {}}]}, "smiles": "FC(F)(OCCCC)C(F)F", "inchi": "InChI=1S/C6H10F4O/c1-2-3-4-11-6(9,10)5(7)8/h5H,2-4H2,1H3", "formula_alphabetical": "C6 F4 H10 O1", "chemsys": "C-F-H-O", "energy": -709.288677378, "esp": {"1": ["F", -0.178095], "2": ["F", -0.218589], "3": ["F", -0.193141], "4": ["F", -0.194975], "5": ["O", -0.363473], "6": ["C", -0.218497], "7": ["C", 0.183667], "8": ["C", 0.269169], "9": ["C", 0.429843], "10": ["C", -0.289228], "11": ["C", 0.279758], "12": ["H", 0.058296], "13": ["H", 0.06892], "14": ["H", 0.047185], "15": ["H", 0.060224], "16": ["H", -0.03244], "17": ["H", -0.043068], "18": ["H", 0.062772], "19": ["H", 0.061775], "20": ["H", 0.083438], "21": ["H", 0.12646]}, "dipole_moment": {"X": -0.2072, "Y": -3.3606, "Z": 0.745, "Tot": 3.4485}, "functional": "B3LYP", "basis": "6-31+G*", "phase": "gas", "tag": "lis", "state": "successful", "wall_time (s)": 26.508789365994744, "version": "0.0.1", "gauss_version": "ES64L-G16RevC.01", "last_updated": "2021-09-09 18:29:44.666000", "polarizability": 78.58, "fluorinated-solvent": "9659", "run_ids": ["613a4ab25bff135615d4621b", "613a5294701c5a642019d2b4"]}