{"_id": "613a5696b63b1d99f16fcf7a", "molecule": {"@module": "pymatgen.core.structure", "@class": "Molecule", "charge": 0, "spin_multiplicity": 1, "sites": [{"name": "F", "species": [{"element": "F", "occu": 1}], "xyz": [2.475585, 1.516443, -2.909781], "properties": {}}, {"name": "F", "species": [{"element": "F", "occu": 1}], "xyz": [0.941118, 1.373437, -1.353635], "properties": {}}, {"name": "F", "species": [{"element": "F", "occu": 1}], "xyz": [2.449517, -3.591086, -3.467459], "properties": {}}, {"name": "O", "species": [{"element": "O", "occu": 1}], "xyz": [2.741439, 0.015151, -1.243605], "properties": {}}, {"name": "C", "species": [{"element": "C", "occu": 1}], "xyz": [2.765396, -2.35837, -1.434741], "properties": {}}, {"name": "C", "species": [{"element": "C", "occu": 1}], "xyz": [2.129972, -1.081283, -1.964741], "properties": {}}, {"name": "C", "species": [{"element": "C", "occu": 1}], "xyz": [2.313796, 1.265926, -1.553253], "properties": {}}, {"name": "C", "species": [{"element": "C", "occu": 1}], "xyz": [2.184624, -3.60276, -2.082531], "properties": {}}, {"name": "C", "species": [{"element": "C", "occu": 1}], "xyz": [3.038198, 2.310047, -0.742109], "properties": {}}, {"name": "H", "species": [{"element": "H", "occu": 1}], "xyz": [3.84821, -2.32841, -1.603507], "properties": {}}, {"name": "H", "species": [{"element": "H", "occu": 1}], "xyz": [2.603131, -2.423534, -0.350395], "properties": {}}, {"name": "H", "species": [{"element": "H", "occu": 1}], "xyz": [1.048705, -1.070847, -1.784915], "properties": {}}, {"name": "H", "species": [{"element": "H", "occu": 1}], "xyz": [2.315228, -0.960461, -3.035556], "properties": {}}, {"name": "H", "species": [{"element": "H", "occu": 1}], "xyz": [2.636813, -4.513444, -1.675922], "properties": {}}, {"name": "H", "species": [{"element": "H", "occu": 1}], "xyz": [1.094971, -3.656941, -1.969149], "properties": {}}, {"name": "H", "species": [{"element": "H", "occu": 1}], "xyz": [4.109253, 2.248993, -0.948615], "properties": {}}, {"name": "H", "species": [{"element": "H", "occu": 1}], "xyz": [2.664948, 3.298964, -1.017291], "properties": {}}, {"name": "H", "species": [{"element": "H", "occu": 1}], "xyz": [2.859974, 2.130638, 0.320704], "properties": {}}]}, "smiles": "FC(F)(OCCCF)C", "inchi": "InChI=1S/C5H9F3O/c1-5(7,8)9-4-2-3-6/h2-4H2,1H3", "formula_alphabetical": "C5 F3 H9 O1", "chemsys": "C-F-H-O", "energy": -570.740595824, "esp": {"1": ["F", -0.272414], "2": ["F", -0.2808], "3": ["F", -0.291904], "4": ["O", -0.475829], "5": ["C", -0.137963], "6": ["C", 0.321274], "7": ["C", 0.72725], "8": ["C", 0.165045], "9": ["C", -0.513809], "10": ["H", 0.083436], "11": ["H", 0.050061], "12": ["H", 0.01358], "13": ["H", 0.025081], "14": ["H", 0.057728], "15": ["H", 0.040183], "16": ["H", 0.161886], "17": ["H", 0.163145], "18": ["H", 0.164049]}, "dipole_moment": {"X": 0.5561, "Y": -0.7176, "Z": 2.6773, "Tot": 2.827}, "functional": "B3LYP", "basis": "6-31+G*", "phase": "gas", "tag": "lis", "state": "successful", "wall_time (s)": 7.641889387974516, "version": "0.0.1", "gauss_version": "ES64L-G16RevC.01", "last_updated": "2021-09-09 18:46:45.953000", "polarizability": 66.34, "fluorinated-solvent": "56776419", "run_ids": ["613a4af3f11abb2cf49ed547", "613a568e0cbfcde645999b68"]}