{"_id": "61411897bd45c9de17da396b", "molecule": {"@module": "pymatgen.core.structure", "@class": "Molecule", "charge": 0, "spin_multiplicity": 1, "sites": [{"name": "F", "species": [{"element": "F", "occu": 1}], "xyz": [0.890467, 0.279911, 0.386081], "properties": {}}, {"name": "F", "species": [{"element": "F", "occu": 1}], "xyz": [0.505536, -1.230639, -1.137527], "properties": {}}, {"name": "F", "species": [{"element": "F", "occu": 1}], "xyz": [-0.924171, 0.395192, -0.828814], "properties": {}}, {"name": "O", "species": [{"element": "O", "occu": 1}], "xyz": [2.493491, 0.795457, -1.913967], "properties": {}}, {"name": "C", "species": [{"element": "C", "occu": 1}], "xyz": [4.514441, -0.241462, -2.758969], "properties": {}}, {"name": "C", "species": [{"element": "C", "occu": 1}], "xyz": [2.980359, -0.28746, -2.721044], "properties": {}}, {"name": "C", "species": [{"element": "C", "occu": 1}], "xyz": [5.073948, -0.399242, -1.332696], "properties": {}}, {"name": "C", "species": [{"element": "C", "occu": 1}], "xyz": [4.990825, -1.413262, -3.638197], "properties": {}}, {"name": "C", "species": [{"element": "C", "occu": 1}], "xyz": [4.986924, 1.091823, -3.366691], "properties": {}}, {"name": "C", "species": [{"element": "C", "occu": 1}], "xyz": [1.105086, 0.970918, -1.89339], "properties": {}}, {"name": "C", "species": [{"element": "C", "occu": 1}], "xyz": [0.400917, 0.094483, -0.857705], "properties": {}}, {"name": "H", "species": [{"element": "H", "occu": 1}], "xyz": [2.642155, -1.246774, -2.307963], "properties": {}}, {"name": "H", "species": [{"element": "H", "occu": 1}], "xyz": [2.571365, -0.186612, -3.740179], "properties": {}}, {"name": "H", "species": [{"element": "H", "occu": 1}], "xyz": [4.749682, -1.347344, -0.884591], "properties": {}}, {"name": "H", "species": [{"element": "H", "occu": 1}], "xyz": [6.170812, -0.391426, -1.348745], "properties": {}}, {"name": "H", "species": [{"element": "H", "occu": 1}], "xyz": [4.732595, 0.414709, -0.685402], "properties": {}}, {"name": "H", "species": [{"element": "H", "occu": 1}], "xyz": [4.606363, -1.329636, -4.663104], "properties": {}}, {"name": "H", "species": [{"element": "H", "occu": 1}], "xyz": [6.085935, -1.425658, -3.693303], "properties": {}}, {"name": "H", "species": [{"element": "H", "occu": 1}], "xyz": [4.66634, -2.379323, -3.230587], "properties": {}}, {"name": "H", "species": [{"element": "H", "occu": 1}], "xyz": [4.601565, 1.219215, -4.387036], "properties": {}}, {"name": "H", "species": [{"element": "H", "occu": 1}], "xyz": [4.644227, 1.939825, -2.76533], "properties": {}}, {"name": "H", "species": [{"element": "H", "occu": 1}], "xyz": [6.082319, 1.124349, -3.414972], "properties": {}}, {"name": "H", "species": [{"element": "H", "occu": 1}], "xyz": [0.63664, 0.769413, -2.868363], "properties": {}}, {"name": "H", "species": [{"element": "H", "occu": 1}], "xyz": [0.905507, 2.009636, -1.612538], "properties": {}}]}, "smiles": "FC(F)(F)COCC(C)(C)C", "inchi": "InChI=1S/C7H13F3O/c1-6(2,3)4-11-5-7(8,9)10/h4-5H2,1-3H3", "formula_alphabetical": "C7 F3 H13 O1", "chemsys": "C-F-H-O", "energy": -649.358851628, "esp": {"1": ["F", -0.194927], "2": ["F", -0.202627], "3": ["F", -0.230571], "4": ["O", -0.264939], "5": ["C", 0.552817], "6": ["C", 0.036145], "7": ["C", -0.314212], "8": ["C", -0.522835], "9": ["C", -0.316549], "10": ["C", -0.260168], "11": ["C", 0.620704], "12": ["H", 0.038145], "13": ["H", 0.035435], "14": ["H", 0.067404], "15": ["H", 0.064904], "16": ["H", 0.056375], "17": ["H", 0.099033], "18": ["H", 0.127778], "19": ["H", 0.107628], "20": ["H", 0.062238], "21": ["H", 0.057207], "22": ["H", 0.066597], "23": ["H", 0.144123], "24": ["H", 0.170293]}, "dipole_moment": {"X": 0.8161, "Y": 0.3747, "Z": -2.1527, "Tot": 2.3325}, "functional": "B3LYP", "basis": "6-31+G*", "phase": "gas", "tag": "lis", "state": "successful", "wall_time (s)": 10.904743012040854, "version": "0.0.1", "gauss_version": "ES64L-G16RevC.01", "last_updated": "2021-09-14 21:48:07.017000", "polarizability": 90.68, "fluorinated-solvent": "58044342", "run_ids": ["6141188185bb85c9dfcebca5", "614118921e47b22c4827dffc"]}