{"_id": "613a55fbb310db2a65e36ea4", "molecule": {"@module": "pymatgen.core.structure", "@class": "Molecule", "charge": 0, "spin_multiplicity": 1, "sites": [{"name": "F", "species": [{"element": "F", "occu": 1}], "xyz": [5.094838, -0.54637, 2.011114], "properties": {}}, {"name": "F", "species": [{"element": "F", "occu": 1}], "xyz": [4.406886, 0.534709, 0.244141], "properties": {}}, {"name": "F", "species": [{"element": "F", "occu": 1}], "xyz": [4.736592, -1.621822, 0.144488], "properties": {}}, {"name": "O", "species": [{"element": "O", "occu": 1}], "xyz": [0.930256, -0.137897, 2.534776], "properties": {}}, {"name": "C", "species": [{"element": "C", "occu": 1}], "xyz": [2.831371, -0.876515, 1.342348], "properties": {}}, {"name": "C", "species": [{"element": "C", "occu": 1}], "xyz": [2.266235, 0.225497, 2.235315], "properties": {}}, {"name": "C", "species": [{"element": "C", "occu": 1}], "xyz": [4.264345, -0.627275, 0.936833], "properties": {}}, {"name": "C", "species": [{"element": "C", "occu": 1}], "xyz": [0.27307, 0.805034, 3.366304], "properties": {}}, {"name": "H", "species": [{"element": "H", "occu": 1}], "xyz": [2.234716, -0.961244, 0.429119], "properties": {}}, {"name": "H", "species": [{"element": "H", "occu": 1}], "xyz": [2.793316, -1.837486, 1.864127], "properties": {}}, {"name": "H", "species": [{"element": "H", "occu": 1}], "xyz": [2.859313, 0.316137, 3.159343], "properties": {}}, {"name": "H", "species": [{"element": "H", "occu": 1}], "xyz": [2.296292, 1.196751, 1.716143], "properties": {}}, {"name": "H", "species": [{"element": "H", "occu": 1}], "xyz": [0.784856, 0.90923, 4.33624], "properties": {}}, {"name": "H", "species": [{"element": "H", "occu": 1}], "xyz": [0.218528, 1.794391, 2.884895], "properties": {}}, {"name": "H", "species": [{"element": "H", "occu": 1}], "xyz": [-0.739543, 0.429707, 3.532526], "properties": {}}]}, "smiles": "FC(F)(F)CCOC", "inchi": "InChI=1S/C4H7F3O/c1-8-3-2-4(5,6)7/h2-3H2,1H3", "formula_alphabetical": "C4 F3 H7 O1", "chemsys": "C-F-H-O", "energy": -531.415670951, "esp": {"1": ["F", -0.238202], "2": ["F", -0.236966], "3": ["F", -0.228188], "4": ["O", -0.385705], "5": ["C", -0.39511], "6": ["C", 0.300483], "7": ["C", 0.683177], "8": ["C", -0.048691], "9": ["H", 0.147104], "10": ["H", 0.145871], "11": ["H", 0.020084], "12": ["H", 0.018213], "13": ["H", 0.05918], "14": ["H", 0.057941], "15": ["H", 0.100811]}, "dipole_moment": {"X": -1.9419, "Y": 0.8969, "Z": 1.3022, "Tot": 2.5042}, "functional": "B3LYP", "basis": "6-31+G*", "phase": "gas", "tag": "lis", "state": "successful", "wall_time (s)": 6.452876375988126, "version": "0.0.1", "gauss_version": "ES64L-G16RevC.01", "last_updated": "2021-09-09 18:44:11.593000", "polarizability": 55.14, "fluorinated-solvent": "22178543", "run_ids": ["613a4ae8e8b572b9fae21000", "613a55f333581fdd14bf6976"]}