{"_id": "614117259624f5b3733d4f2f", "molecule": {"@module": "pymatgen.core.structure", "@class": "Molecule", "charge": 0, "spin_multiplicity": 1, "sites": [{"name": "F", "species": [{"element": "F", "occu": 1}], "xyz": [4.607871, 2.413398, 0.446305], "properties": {}}, {"name": "F", "species": [{"element": "F", "occu": 1}], "xyz": [4.458966, 0.43789, 1.41343], "properties": {}}, {"name": "F", "species": [{"element": "F", "occu": 1}], "xyz": [0.636427, 3.783736, 2.729182], "properties": {}}, {"name": "F", "species": [{"element": "F", "occu": 1}], "xyz": [-1.126328, 2.449841, 2.731597], "properties": {}}, {"name": "F", "species": [{"element": "F", "occu": 1}], "xyz": [6.137999, 0.488855, -0.750097], "properties": {}}, {"name": "F", "species": [{"element": "F", "occu": 1}], "xyz": [4.3788, -0.764135, -1.073269], "properties": {}}, {"name": "F", "species": [{"element": "F", "occu": 1}], "xyz": [4.517894, 1.192448, -2.034746], "properties": {}}, {"name": "F", "species": [{"element": "F", "occu": 1}], "xyz": [0.295299, 2.282592, 5.029156], "properties": {}}, {"name": "F", "species": [{"element": "F", "occu": 1}], "xyz": [0.492811, 0.432033, 3.828544], "properties": {}}, {"name": "O", "species": [{"element": "O", "occu": 1}], "xyz": [2.066235, 1.785876, 1.326317], "properties": {}}, {"name": "C", "species": [{"element": "C", "occu": 1}], "xyz": [2.587545, 1.193937, 0.159636], "properties": {}}, {"name": "C", "species": [{"element": "C", "occu": 1}], "xyz": [4.104481, 1.154794, 0.308729], "properties": {}}, {"name": "C", "species": [{"element": "C", "occu": 1}], "xyz": [0.653186, 1.863539, 1.334496], "properties": {}}, {"name": "C", "species": [{"element": "C", "occu": 1}], "xyz": [0.239721, 2.474295, 2.665725], "properties": {}}, {"name": "C", "species": [{"element": "C", "occu": 1}], "xyz": [4.810737, 0.504204, -0.911165], "properties": {}}, {"name": "C", "species": [{"element": "C", "occu": 1}], "xyz": [0.831655, 1.759031, 3.89385], "properties": {}}, {"name": "H", "species": [{"element": "H", "occu": 1}], "xyz": [2.338775, 1.78017, -0.736439], "properties": {}}, {"name": "H", "species": [{"element": "H", "occu": 1}], "xyz": [2.222204, 0.164992, 0.030729], "properties": {}}, {"name": "H", "species": [{"element": "H", "occu": 1}], "xyz": [0.274182, 2.512198, 0.531757], "properties": {}}, {"name": "H", "species": [{"element": "H", "occu": 1}], "xyz": [0.194371, 0.869012, 1.25005], "properties": {}}, {"name": "H", "species": [{"element": "H", "occu": 1}], "xyz": [1.919331, 1.848973, 3.927235], "properties": {}}]}, "smiles": "FC(F)(COCC(F)(F)C(F)F)C(F)(F)F", "inchi": "InChI=1S/C6H5F9O/c7-3(8)4(9,10)1-16-2-5(11,12)6(13,14)15/h3H,1-2H2", "formula_alphabetical": "C6 F9 H5 O1", "chemsys": "C-F-H-O", "energy": -1205.49256286, "esp": {"1": ["F", -0.150075], "2": ["F", -0.154128], "3": ["F", -0.191252], "4": ["F", -0.179469], "5": ["F", -0.147979], "6": ["F", -0.183247], "7": ["F", -0.18204], "8": ["F", -0.210997], "9": ["F", -0.216528], "10": ["O", -0.187075], "11": ["C", -0.047741], "12": ["C", 0.199026], "13": ["C", -0.244191], "14": ["C", 0.317349], "15": ["C", 0.534395], "16": ["C", 0.394734], "17": ["H", 0.114619], "18": ["H", 0.115173], "19": ["H", 0.185383], "20": ["H", 0.149414], "21": ["H", 0.084627]}, "dipole_moment": {"X": -0.4962, "Y": -0.9912, "Z": -2.8547, "Tot": 3.0623}, "functional": "B3LYP", "basis": "6-31+G*", "phase": "gas", "tag": "lis", "state": "successful", "wall_time (s)": 15.636762214940973, "version": "0.0.1", "gauss_version": "ES64L-G16RevC.01", "last_updated": "2021-09-14 21:41:57.347000", "polarizability": 82.61, "fluorinated-solvent": "88850715", "run_ids": ["614116f424ef478e30baf5fe", "61411719de63acac1d66fdcd"]}