{"_id": "614117ad60933c4dbd139901", "molecule": {"@module": "pymatgen.core.structure", "@class": "Molecule", "charge": 0, "spin_multiplicity": 1, "sites": [{"name": "F", "species": [{"element": "F", "occu": 1}], "xyz": [2.926656, 1.064341, -0.087847], "properties": {}}, {"name": "F", "species": [{"element": "F", "occu": 1}], "xyz": [1.433996, -0.474775, -0.495957], "properties": {}}, {"name": "F", "species": [{"element": "F", "occu": 1}], "xyz": [3.504831, -0.77877, -1.107305], "properties": {}}, {"name": "F", "species": [{"element": "F", "occu": 1}], "xyz": [-1.454269, -2.77116, 4.208247], "properties": {}}, {"name": "F", "species": [{"element": "F", "occu": 1}], "xyz": [-1.958854, -0.762286, 3.527395], "properties": {}}, {"name": "F", "species": [{"element": "F", "occu": 1}], "xyz": [-3.005987, -2.491689, 2.692777], "properties": {}}, {"name": "O", "species": [{"element": "O", "occu": 1}], "xyz": [0.532322, -1.843288, 2.387371], "properties": {}}, {"name": "C", "species": [{"element": "C", "occu": 1}], "xyz": [2.35666, -0.299279, 2.431467], "properties": {}}, {"name": "C", "species": [{"element": "C", "occu": 1}], "xyz": [3.047883, -0.933527, 1.214317], "properties": {}}, {"name": "C", "species": [{"element": "C", "occu": 1}], "xyz": [0.838707, -0.443189, 2.458392], "properties": {}}, {"name": "C", "species": [{"element": "C", "occu": 1}], "xyz": [2.727471, -0.280882, -0.112072], "properties": {}}, {"name": "C", "species": [{"element": "C", "occu": 1}], "xyz": [-0.771907, -2.174853, 1.994168], "properties": {}}, {"name": "C", "species": [{"element": "C", "occu": 1}], "xyz": [-1.796414, -2.048667, 3.120835], "properties": {}}, {"name": "H", "species": [{"element": "H", "occu": 1}], "xyz": [2.766602, -0.777928, 3.328486], "properties": {}}, {"name": "H", "species": [{"element": "H", "occu": 1}], "xyz": [2.605371, 0.766787, 2.494356], "properties": {}}, {"name": "H", "species": [{"element": "H", "occu": 1}], "xyz": [2.777464, -1.989612, 1.126977], "properties": {}}, {"name": "H", "species": [{"element": "H", "occu": 1}], "xyz": [4.134853, -0.87233, 1.330483], "properties": {}}, {"name": "H", "species": [{"element": "H", "occu": 1}], "xyz": [0.439856, -0.014787, 3.38603], "properties": {}}, {"name": "H", "species": [{"element": "H", "occu": 1}], "xyz": [0.372077, 0.079276, 1.612909], "properties": {}}, {"name": "H", "species": [{"element": "H", "occu": 1}], "xyz": [-1.125578, -1.559052, 1.154523], "properties": {}}, {"name": "H", "species": [{"element": "H", "occu": 1}], "xyz": [-0.762908, -3.224462, 1.687357], "properties": {}}]}, "smiles": "FC(F)(F)CCCOCC(F)(F)F", "inchi": "InChI=1S/C6H8F6O/c7-5(8,9)2-1-3-13-4-6(10,11)12/h1-4H2", "formula_alphabetical": "C6 F6 H8 O1", "chemsys": "C-F-H-O", "energy": -907.791130851, "esp": {"1": ["F", -0.233575], "2": ["F", -0.217025], "3": ["F", -0.254079], "4": ["F", -0.189489], "5": ["F", -0.19976], "6": ["F", -0.221779], "7": ["O", -0.286792], "8": ["C", -0.102149], "9": ["C", -0.157085], "10": ["C", 0.095988], "11": ["C", 0.668382], "12": ["C", -0.249798], "13": ["C", 0.598222], "14": ["H", 0.078995], "15": ["H", 0.055759], "16": ["H", 0.084217], "17": ["H", 0.085667], "18": ["H", 0.065655], "19": ["H", 0.044403], "20": ["H", 0.155504], "21": ["H", 0.17874]}, "dipole_moment": {"X": 1.3634, "Y": -0.0094, "Z": 0.5066, "Tot": 1.4545}, "functional": "B3LYP", "basis": "6-31+G*", "phase": "gas", "tag": "lis", "state": "successful", "wall_time (s)": 11.932466984027997, "version": "0.0.1", "gauss_version": "ES64L-G16RevC.01", "last_updated": "2021-09-14 21:44:13.313000", "polarizability": 79.55, "fluorinated-solvent": "150337975", "run_ids": ["6141178dced3e44d7e0bc8de", "614117a38db982d37bafd245"]}