{"_id": "61412efcf714c5d3222249ff", "molecule": {"@module": "pymatgen.core.structure", "@class": "Molecule", "charge": 0, "spin_multiplicity": 1, "sites": [{"name": "F", "species": [{"element": "F", "occu": 1}], "xyz": [2.486846, 2.403497, -2.175896], "properties": {}}, {"name": "F", "species": [{"element": "F", "occu": 1}], "xyz": [1.182992, 1.609586, -0.610323], "properties": {}}, {"name": "F", "species": [{"element": "F", "occu": 1}], "xyz": [2.774455, 3.695062, 0.271572], "properties": {}}, {"name": "O", "species": [{"element": "O", "occu": 1}], "xyz": [3.050363, 0.464874, -1.161073], "properties": {}}, {"name": "C", "species": [{"element": "C", "occu": 1}], "xyz": [2.97076, -1.79927, -1.960182], "properties": {}}, {"name": "C", "species": [{"element": "C", "occu": 1}], "xyz": [2.611467, -2.403949, -0.592571], "properties": {}}, {"name": "C", "species": [{"element": "C", "occu": 1}], "xyz": [2.456148, -0.385241, -2.1833], "properties": {}}, {"name": "C", "species": [{"element": "C", "occu": 1}], "xyz": [1.103565, -2.516763, -0.332839], "properties": {}}, {"name": "C", "species": [{"element": "C", "occu": 1}], "xyz": [2.507551, 1.690873, -0.994721], "properties": {}}, {"name": "C", "species": [{"element": "C", "occu": 1}], "xyz": [3.316071, 2.435559, 0.060686], "properties": {}}, {"name": "H", "species": [{"element": "H", "occu": 1}], "xyz": [2.555331, -2.423504, -2.764609], "properties": {}}, {"name": "H", "species": [{"element": "H", "occu": 1}], "xyz": [4.060989, -1.799712, -2.089845], "properties": {}}, {"name": "H", "species": [{"element": "H", "occu": 1}], "xyz": [3.067047, -3.401261, -0.531572], "properties": {}}, {"name": "H", "species": [{"element": "H", "occu": 1}], "xyz": [3.076556, -1.801166, 0.197339], "properties": {}}, {"name": "H", "species": [{"element": "H", "occu": 1}], "xyz": [1.367125, -0.329286, -2.098097], "properties": {}}, {"name": "H", "species": [{"element": "H", "occu": 1}], "xyz": [2.754185, -0.000583, -3.163935], "properties": {}}, {"name": "H", "species": [{"element": "H", "occu": 1}], "xyz": [0.603476, -3.079183, -1.132681], "properties": {}}, {"name": "H", "species": [{"element": "H", "occu": 1}], "xyz": [0.908579, -3.037427, 0.61195], "properties": {}}, {"name": "H", "species": [{"element": "H", "occu": 1}], "xyz": [0.626896, -1.531854, -0.265694], "properties": {}}, {"name": "H", "species": [{"element": "H", "occu": 1}], "xyz": [3.282981, 1.87286, 0.997525], "properties": {}}, {"name": "H", "species": [{"element": "H", "occu": 1}], "xyz": [4.345423, 2.545647, -0.290793], "properties": {}}]}, "smiles": "FC(F)(OCCCC)CF", "inchi": "InChI=1S/C6H11F3O/c1-2-3-4-10-6(8,9)5-7/h2-5H2,1H3", "formula_alphabetical": "C6 F3 H11 O1", "chemsys": "C-F-H-O", "energy": -610.044519749, "esp": {"1": ["F", -0.245533], "2": ["F", -0.241426], "3": ["F", -0.236651], "4": ["O", -0.457604], "5": ["C", -0.212423], "6": ["C", 0.282898], "7": ["C", 0.235489], "8": ["C", -0.250108], "9": ["C", 0.61682], "10": ["C", 0.035177], "11": ["H", 0.051117], "12": ["H", 0.062232], "13": ["H", -0.042939], "14": ["H", -0.051003], "15": ["H", 0.024339], "16": ["H", 0.041826], "17": ["H", 0.050992], "18": ["H", 0.049827], "19": ["H", 0.074469], "20": ["H", 0.110104], "21": ["H", 0.102396]}, "dipole_moment": {"X": 1.4634, "Y": -3.1529, "Z": -0.265, "Tot": 3.4861}, "functional": "B3LYP", "basis": "6-31+G*", "phase": "gas", "tag": "lis", "state": "successful", "wall_time (s)": 8.667590977041982, "version": "0.0.1", "gauss_version": "ES64L-G16RevC.01", "last_updated": "2021-09-14 23:23:39.749000", "polarizability": 77.47, "fluorinated-solvent": "58858690", "run_ids": ["61412edb09666eeac07a0980", "61412ef62671d3ba3ef75b53"]}