{"_id": "613a4d4807d444a4e6e2d50c", "molecule": {"@module": "pymatgen.core.structure", "@class": "Molecule", "charge": 0, "spin_multiplicity": 1, "sites": [{"name": "F", "species": [{"element": "F", "occu": 1}], "xyz": [3.157694, -1.217724, 0.555815], "properties": {}}, {"name": "F", "species": [{"element": "F", "occu": 1}], "xyz": [1.292106, -0.156467, 0.174391], "properties": {}}, {"name": "F", "species": [{"element": "F", "occu": 1}], "xyz": [3.169217, 0.951131, 0.311997], "properties": {}}, {"name": "F", "species": [{"element": "F", "occu": 1}], "xyz": [4.006856, 2.130968, -2.677021], "properties": {}}, {"name": "F", "species": [{"element": "F", "occu": 1}], "xyz": [2.018554, 2.935037, -3.249712], "properties": {}}, {"name": "O", "species": [{"element": "O", "occu": 1}], "xyz": [2.328739, -1.6106, -2.072352], "properties": {}}, {"name": "C", "species": [{"element": "C", "occu": 1}], "xyz": [2.834199, -0.361771, -1.655908], "properties": {}}, {"name": "C", "species": [{"element": "C", "occu": 1}], "xyz": [2.115196, 0.715649, -2.479418], "properties": {}}, {"name": "C", "species": [{"element": "C", "occu": 1}], "xyz": [2.603848, -0.201252, -0.144406], "properties": {}}, {"name": "C", "species": [{"element": "C", "occu": 1}], "xyz": [2.66495, 2.121867, -2.34485], "properties": {}}, {"name": "C", "species": [{"element": "C", "occu": 1}], "xyz": [3.283124, -2.68474, -2.140882], "properties": {}}, {"name": "C", "species": [{"element": "C", "occu": 1}], "xyz": [2.547442, -3.917803, -2.633142], "properties": {}}, {"name": "H", "species": [{"element": "H", "occu": 1}], "xyz": [3.919486, -0.291591, -1.811786], "properties": {}}, {"name": "H", "species": [{"element": "H", "occu": 1}], "xyz": [2.211477, 0.42859, -3.531063], "properties": {}}, {"name": "H", "species": [{"element": "H", "occu": 1}], "xyz": [1.049157, 0.722969, -2.232319], "properties": {}}, {"name": "H", "species": [{"element": "H", "occu": 1}], "xyz": [2.569342, 2.581635, -1.359741], "properties": {}}, {"name": "H", "species": [{"element": "H", "occu": 1}], "xyz": [4.08985, -2.40254, -2.835361], "properties": {}}, {"name": "H", "species": [{"element": "H", "occu": 1}], "xyz": [3.724113, -2.859298, -1.151638], "properties": {}}, {"name": "H", "species": [{"element": "H", "occu": 1}], "xyz": [2.103608, -3.735366, -3.6176], "properties": {}}, {"name": "H", "species": [{"element": "H", "occu": 1}], "xyz": [3.242067, -4.761982, -2.713038], "properties": {}}, {"name": "H", "species": [{"element": "H", "occu": 1}], "xyz": [1.747126, -4.189384, -1.936861], "properties": {}}]}, "smiles": "FC(F)(F)[C@@H](OCC)CC(F)F", "inchi": "InChI=1S/C6H9F5O/c1-2-12-4(3-5(7)8)6(9,10)11/h4-5H,2-3H2,1H3/t4-/m0/s1", "formula_alphabetical": "C6 F5 H9 O1", "chemsys": "C-F-H-O", "energy": -808.535446753, "esp": {"1": ["F", -0.15698], "2": ["F", -0.16109], "3": ["F", -0.208101], "4": ["F", -0.25076], "5": ["F", -0.250989], "6": ["O", -0.508326], "7": ["C", 0.339279], "8": ["C", -0.318103], "9": ["C", 0.414848], "10": ["C", 0.406737], "11": ["C", 0.408127], "12": ["C", -0.315775], "13": ["H", 0.017258], "14": ["H", 0.166842], "15": ["H", 0.116838], "16": ["H", 0.087478], "17": ["H", -0.016539], "18": ["H", -0.03962], "19": ["H", 0.090515], "20": ["H", 0.073352], "21": ["H", 0.105007]}, "dipole_moment": {"X": 0.5334, "Y": -2.1823, "Z": -0.5214, "Tot": 2.3062}, "functional": "B3LYP", "basis": "6-31+G*", "phase": "gas", "tag": "lis", "state": "successful", "wall_time (s)": 11.028982793912292, "version": "0.0.1", "gauss_version": "ES64L-G16RevC.01", "last_updated": "2021-09-09 18:07:04.458000", "polarizability": 79.54, "fluorinated-solvent": "53961153", "run_ids": ["613a49e83808a97289834dc6", "613a4d442b903bc8b552776f"]}