{"_id": "613a509365e03afe4aa3c33d", "molecule": {"@module": "pymatgen.core.structure", "@class": "Molecule", "charge": 0, "spin_multiplicity": 1, "sites": [{"name": "F", "species": [{"element": "F", "occu": 1}], "xyz": [1.381438, 4.329515, -1.292148], "properties": {}}, {"name": "F", "species": [{"element": "F", "occu": 1}], "xyz": [3.428618, 4.535695, -0.464102], "properties": {}}, {"name": "O", "species": [{"element": "O", "occu": 1}], "xyz": [2.103506, 1.532278, -1.965548], "properties": {}}, {"name": "C", "species": [{"element": "C", "occu": 1}], "xyz": [0.260648, 0.31868, -2.900968], "properties": {}}, {"name": "C", "species": [{"element": "C", "occu": 1}], "xyz": [0.892842, -1.063475, -2.667828], "properties": {}}, {"name": "C", "species": [{"element": "C", "occu": 1}], "xyz": [0.676874, 1.387611, -1.897652], "properties": {}}, {"name": "C", "species": [{"element": "C", "occu": 1}], "xyz": [0.518515, -1.705468, -1.325703], "properties": {}}, {"name": "C", "species": [{"element": "C", "occu": 1}], "xyz": [2.686872, 2.352772, -0.979564], "properties": {}}, {"name": "C", "species": [{"element": "C", "occu": 1}], "xyz": [2.663781, 3.825228, -1.364056], "properties": {}}, {"name": "H", "species": [{"element": "H", "occu": 1}], "xyz": [-0.835813, 0.239153, -2.862832], "properties": {}}, {"name": "H", "species": [{"element": "H", "occu": 1}], "xyz": [0.517572, 0.67298, -3.908079], "properties": {}}, {"name": "H", "species": [{"element": "H", "occu": 1}], "xyz": [0.578443, -1.726785, -3.485028], "properties": {}}, {"name": "H", "species": [{"element": "H", "occu": 1}], "xyz": [1.983228, -0.971565, -2.740635], "properties": {}}, {"name": "H", "species": [{"element": "H", "occu": 1}], "xyz": [0.392693, 1.104298, -0.872153], "properties": {}}, {"name": "H", "species": [{"element": "H", "occu": 1}], "xyz": [0.185335, 2.341431, -2.12809], "properties": {}}, {"name": "H", "species": [{"element": "H", "occu": 1}], "xyz": [-0.571265, -1.776791, -1.208661], "properties": {}}, {"name": "H", "species": [{"element": "H", "occu": 1}], "xyz": [0.929278, -2.719123, -1.247654], "properties": {}}, {"name": "H", "species": [{"element": "H", "occu": 1}], "xyz": [0.908447, -1.130379, -0.477293], "properties": {}}, {"name": "H", "species": [{"element": "H", "occu": 1}], "xyz": [3.735673, 2.050995, -0.887167], "properties": {}}, {"name": "H", "species": [{"element": "H", "occu": 1}], "xyz": [2.199045, 2.239883, 0.000942], "properties": {}}, {"name": "H", "species": [{"element": "H", "occu": 1}], "xyz": [3.039852, 4.021975, -2.37239], "properties": {}}]}, "smiles": "FC(F)COCCCC", "inchi": "InChI=1S/C6H12F2O/c1-2-3-4-9-5-6(7)8/h6H,2-5H2,1H3", "formula_alphabetical": "C6 F2 H12 O1", "chemsys": "C-F-H-O", "energy": -510.787604481, "esp": {"1": ["F", -0.234662], "2": ["F", -0.264139], "3": ["O", -0.374966], "4": ["C", -0.220341], "5": ["C", 0.27298], "6": ["C", 0.221834], "7": ["C", -0.248774], "8": ["C", -0.063486], "9": ["C", 0.386174], "10": ["H", 0.056433], "11": ["H", 0.05486], "12": ["H", -0.041185], "13": ["H", -0.047974], "14": ["H", 0.002806], "15": ["H", 0.020687], "16": ["H", 0.04717], "17": ["H", 0.048224], "18": ["H", 0.068487], "19": ["H", 0.113174], "20": ["H", 0.113406], "21": ["H", 0.089292]}, "dipole_moment": {"X": -0.2904, "Y": -1.5063, "Z": -0.4763, "Tot": 1.6063}, "functional": "B3LYP", "basis": "6-31+G*", "phase": "gas", "tag": "lis", "state": "successful", "wall_time (s)": 13.1643589111045, "version": "0.0.1", "gauss_version": "ES64L-G16RevC.01", "last_updated": "2021-09-09 18:21:07.309000", "polarizability": 77.61, "fluorinated-solvent": "54300402", "run_ids": ["613a4a8f87ac2b3a867783c1", "613a508af1dd33e74a94e39c"]}