{"_id": "61410f6fc815d8723cca7239", "molecule": {"@module": "pymatgen.core.structure", "@class": "Molecule", "charge": 0, "spin_multiplicity": 1, "sites": [{"name": "F", "species": [{"element": "F", "occu": 1}], "xyz": [0.973859, -0.114481, -0.113189], "properties": {}}, {"name": "F", "species": [{"element": "F", "occu": 1}], "xyz": [2.730735, -1.236918, -0.771766], "properties": {}}, {"name": "F", "species": [{"element": "F", "occu": 1}], "xyz": [2.457869, 3.520881, -1.889976], "properties": {}}, {"name": "F", "species": [{"element": "F", "occu": 1}], "xyz": [4.295317, 2.542602, -2.537832], "properties": {}}, {"name": "F", "species": [{"element": "F", "occu": 1}], "xyz": [2.581441, 2.648174, -3.891006], "properties": {}}, {"name": "O", "species": [{"element": "O", "occu": 1}], "xyz": [2.821571, 1.009509, -0.7444], "properties": {}}, {"name": "C", "species": [{"element": "C", "occu": 1}], "xyz": [2.881221, -0.127326, 1.348674], "properties": {}}, {"name": "C", "species": [{"element": "C", "occu": 1}], "xyz": [2.359692, -0.092916, -0.082142], "properties": {}}, {"name": "C", "species": [{"element": "C", "occu": 1}], "xyz": [2.469935, 1.142701, 2.108603], "properties": {}}, {"name": "C", "species": [{"element": "C", "occu": 1}], "xyz": [2.413648, -1.401823, 2.06581], "properties": {}}, {"name": "C", "species": [{"element": "C", "occu": 1}], "xyz": [2.412069, 1.147693, -2.102296], "properties": {}}, {"name": "C", "species": [{"element": "C", "occu": 1}], "xyz": [2.948195, 2.479655, -2.595624], "properties": {}}, {"name": "H", "species": [{"element": "H", "occu": 1}], "xyz": [3.973733, -0.148919, 1.247821], "properties": {}}, {"name": "H", "species": [{"element": "H", "occu": 1}], "xyz": [1.379496, 1.204096, 2.198319], "properties": {}}, {"name": "H", "species": [{"element": "H", "occu": 1}], "xyz": [2.892513, 1.117757, 3.118893], "properties": {}}, {"name": "H", "species": [{"element": "H", "occu": 1}], "xyz": [2.827459, 2.046314, 1.606842], "properties": {}}, {"name": "H", "species": [{"element": "H", "occu": 1}], "xyz": [2.720207, -2.304658, 1.52929], "properties": {}}, {"name": "H", "species": [{"element": "H", "occu": 1}], "xyz": [2.848408, -1.435218, 3.0705], "properties": {}}, {"name": "H", "species": [{"element": "H", "occu": 1}], "xyz": [1.322868, -1.413605, 2.167119], "properties": {}}, {"name": "H", "species": [{"element": "H", "occu": 1}], "xyz": [2.830587, 0.352118, -2.725558], "properties": {}}, {"name": "H", "species": [{"element": "H", "occu": 1}], "xyz": [1.322017, 1.160855, -2.190259], "properties": {}}]}, "smiles": "FC(F)(OCC(F)(F)F)C(C)C", "inchi": "InChI=1S/C6H9F5O/c1-4(2)6(10,11)12-3-5(7,8)9/h4H,3H2,1-2H3", "formula_alphabetical": "C6 F5 H9 O1", "chemsys": "C-F-H-O", "energy": -808.554889073, "esp": {"1": ["F", -0.212617], "2": ["F", -0.233362], "3": ["F", -0.189645], "4": ["F", -0.198848], "5": ["F", -0.226831], "6": ["O", -0.310735], "7": ["C", 0.266774], "8": ["C", 0.462871], "9": ["C", -0.400103], "10": ["C", -0.451917], "11": ["C", -0.169941], "12": ["C", 0.625781], "13": ["H", 0.026245], "14": ["H", 0.115144], "15": ["H", 0.111386], "16": ["H", 0.102324], "17": ["H", 0.118167], "18": ["H", 0.126733], "19": ["H", 0.120958], "20": ["H", 0.162219], "21": ["H", 0.155397]}, "dipole_moment": {"X": -0.1027, "Y": -1.1209, "Z": 1.4237, "Tot": 1.8149}, "functional": "B3LYP", "basis": "6-31+G*", "phase": "gas", "tag": "lis", "state": "successful", "wall_time (s)": 10.666365040000528, "version": "0.0.1", "gauss_version": "ES64L-G16RevC.01", "last_updated": "2021-09-14 21:09:03.509000", "polarizability": 79.13, "fluorinated-solvent": "58422597", "run_ids": ["61410f35efae4bb8e651570d", "61410f55525d0e76f5a00913"]}