{"_id": "613a58658c334c116a0caa8b", "molecule": {"@module": "pymatgen.core.structure", "@class": "Molecule", "charge": 0, "spin_multiplicity": 1, "sites": [{"name": "F", "species": [{"element": "F", "occu": 1}], "xyz": [1.11519, -0.486088, 0.600468], "properties": {}}, {"name": "F", "species": [{"element": "F", "occu": 1}], "xyz": [2.136763, 0.174718, -1.213239], "properties": {}}, {"name": "F", "species": [{"element": "F", "occu": 1}], "xyz": [2.708099, -2.410338, -0.517552], "properties": {}}, {"name": "F", "species": [{"element": "F", "occu": 1}], "xyz": [4.46228, -1.119502, -0.375523], "properties": {}}, {"name": "F", "species": [{"element": "F", "occu": 1}], "xyz": [3.441285, -1.779848, 1.43911], "properties": {}}, {"name": "F", "species": [{"element": "F", "occu": 1}], "xyz": [3.182472, 2.630096, 2.917473], "properties": {}}, {"name": "F", "species": [{"element": "F", "occu": 1}], "xyz": [4.218287, 3.293384, 1.117141], "properties": {}}, {"name": "F", "species": [{"element": "F", "occu": 1}], "xyz": [2.340129, 4.245365, 1.707611], "properties": {}}, {"name": "O", "species": [{"element": "O", "occu": 1}], "xyz": [2.914664, 0.857462, 0.788574], "properties": {}}, {"name": "C", "species": [{"element": "C", "occu": 1}], "xyz": [2.341983, -0.14995, 0.099004], "properties": {}}, {"name": "C", "species": [{"element": "C", "occu": 1}], "xyz": [2.185217, 2.090323, 0.824551], "properties": {}}, {"name": "C", "species": [{"element": "C", "occu": 1}], "xyz": [3.266896, -1.39878, 0.164982], "properties": {}}, {"name": "C", "species": [{"element": "C", "occu": 1}], "xyz": [3.004396, 3.065157, 1.654975], "properties": {}}, {"name": "H", "species": [{"element": "H", "occu": 1}], "xyz": [2.065017, 2.501366, -0.18125], "properties": {}}, {"name": "H", "species": [{"element": "H", "occu": 1}], "xyz": [1.212064, 1.953794, 1.303485], "properties": {}}]}, "smiles": "FC(F)(OCC(F)(F)F)C(F)(F)F", "inchi": "InChI=1S/C4H2F8O/c5-2(6,7)1-13-4(11,12)3(8,9)10/h1H2", "formula_alphabetical": "C4 F8 H2 O1", "chemsys": "C-F-H-O", "energy": -1027.64508088, "esp": {"1": ["F", -0.162447], "2": ["F", -0.160073], "3": ["F", -0.170266], "4": ["F", -0.165256], "5": ["F", -0.164054], "6": ["F", -0.163036], "7": ["F", -0.164115], "8": ["F", -0.205219], "9": ["O", -0.281651], "10": ["C", 0.33475], "11": ["C", -0.079581], "12": ["C", 0.544361], "13": ["C", 0.525296], "14": ["H", 0.157547], "15": ["H", 0.153743]}, "dipole_moment": {"X": -1.5069, "Y": 0.8808, "Z": -0.5473, "Tot": 1.8292}, "functional": "B3LYP", "basis": "6-31+G*", "phase": "gas", "tag": "lis", "state": "successful", "wall_time (s)": 9.617936520953663, "version": "0.0.1", "gauss_version": "ES64L-G16RevC.01", "last_updated": "2021-09-09 18:54:29", "polarizability": 59.18, "fluorinated-solvent": "2775955", "run_ids": ["613a4b0e759b01f1599c5c24", "613a585f56b95dc95eaac4f2"]}