{"_id": "613a529e7b03c3f91bb03708", "molecule": {"@module": "pymatgen.core.structure", "@class": "Molecule", "charge": 0, "spin_multiplicity": 1, "sites": [{"name": "F", "species": [{"element": "F", "occu": 1}], "xyz": [1.000779, -0.078289, -0.103382], "properties": {}}, {"name": "F", "species": [{"element": "F", "occu": 1}], "xyz": [2.759115, -1.369629, -0.219964], "properties": {}}, {"name": "F", "species": [{"element": "F", "occu": 1}], "xyz": [2.303117, 1.675171, 1.571421], "properties": {}}, {"name": "F", "species": [{"element": "F", "occu": 1}], "xyz": [2.198064, -0.385777, 2.288564], "properties": {}}, {"name": "O", "species": [{"element": "O", "occu": 1}], "xyz": [2.901652, 0.746593, -0.994096], "properties": {}}, {"name": "O", "species": [{"element": "O", "occu": 1}], "xyz": [4.149135, 0.380227, 1.455712], "properties": {}}, {"name": "C", "species": [{"element": "C", "occu": 1}], "xyz": [2.374921, -0.058688, -0.059226], "properties": {}}, {"name": "C", "species": [{"element": "C", "occu": 1}], "xyz": [2.811787, 0.415644, 1.354962], "properties": {}}, {"name": "C", "species": [{"element": "C", "occu": 1}], "xyz": [2.573566, 0.442652, -2.379523], "properties": {}}, {"name": "C", "species": [{"element": "C", "occu": 1}], "xyz": [4.719952, 0.783517, 2.732789], "properties": {}}, {"name": "C", "species": [{"element": "C", "occu": 1}], "xyz": [3.288477, 1.470319, -3.234891], "properties": {}}, {"name": "C", "species": [{"element": "C", "occu": 1}], "xyz": [6.225858, 0.675251, 2.593524], "properties": {}}, {"name": "H", "species": [{"element": "H", "occu": 1}], "xyz": [2.909001, -0.57563, -2.60155], "properties": {}}, {"name": "H", "species": [{"element": "H", "occu": 1}], "xyz": [1.48686, 0.497625, -2.500614], "properties": {}}, {"name": "H", "species": [{"element": "H", "occu": 1}], "xyz": [4.40401, 1.809667, 2.947056], "properties": {}}, {"name": "H", "species": [{"element": "H", "occu": 1}], "xyz": [4.334675, 0.118481, 3.512476], "properties": {}}, {"name": "H", "species": [{"element": "H", "occu": 1}], "xyz": [4.37151, 1.412177, -3.085145], "properties": {}}, {"name": "H", "species": [{"element": "H", "occu": 1}], "xyz": [3.071344, 1.284169, -4.29295], "properties": {}}, {"name": "H", "species": [{"element": "H", "occu": 1}], "xyz": [2.955256, 2.482387, -2.983012], "properties": {}}, {"name": "H", "species": [{"element": "H", "occu": 1}], "xyz": [6.588881, 1.332755, 1.796864], "properties": {}}, {"name": "H", "species": [{"element": "H", "occu": 1}], "xyz": [6.704872, 0.968839, 3.534607], "properties": {}}, {"name": "H", "species": [{"element": "H", "occu": 1}], "xyz": [6.519579, -0.352931, 2.358296], "properties": {}}]}, "smiles": "FC(F)(OCC)C(F)(F)OCC", "inchi": "InChI=1S/C6H10F4O2/c1-3-11-5(7,8)6(9,10)12-4-2/h3-4H2,1-2H3", "formula_alphabetical": "C6 F4 H10 O2", "chemsys": "C-F-H-O", "energy": -784.518500488, "esp": {"1": ["F", -0.182187], "2": ["F", -0.185866], "3": ["F", -0.171884], "4": ["F", -0.1707], "5": ["O", -0.346046], "6": ["O", -0.32003], "7": ["C", 0.396953], "8": ["C", 0.321892], "9": ["C", 0.348858], "10": ["C", 0.31047], "11": ["C", -0.338591], "12": ["C", -0.333481], "13": ["H", 0.014466], "14": ["H", 0.013718], "15": ["H", 0.026591], "16": ["H", 0.027067], "17": ["H", 0.104099], "18": ["H", 0.082], "19": ["H", 0.107812], "20": ["H", 0.103756], "21": ["H", 0.08351], "22": ["H", 0.107593]}, "dipole_moment": {"X": 2.3644, "Y": 0.9756, "Z": -1.0577, "Tot": 2.7678}, "functional": "B3LYP", "basis": "6-31+G*", "phase": "gas", "tag": "lis", "state": "successful", "wall_time (s)": 24.502838959917426, "version": "0.0.1", "gauss_version": "ES64L-G16RevC.01", "last_updated": "2021-09-09 18:29:49.814000", "polarizability": 83.67, "fluorinated-solvent": "11996771", "run_ids": ["613a4ab31035b7c730554a34", "613a52987025949b83841dfb"]}