{"_id": "613a562d51662bb6deea2474", "molecule": {"@module": "pymatgen.core.structure", "@class": "Molecule", "charge": 0, "spin_multiplicity": 1, "sites": [{"name": "F", "species": [{"element": "F", "occu": 1}], "xyz": [0.870511, -0.318205, 0.187331], "properties": {}}, {"name": "F", "species": [{"element": "F", "occu": 1}], "xyz": [2.182637, 1.221575, -0.636584], "properties": {}}, {"name": "F", "species": [{"element": "F", "occu": 1}], "xyz": [1.937141, -0.96768, -2.2356], "properties": {}}, {"name": "F", "species": [{"element": "F", "occu": 1}], "xyz": [4.032841, 0.675193, -2.840756], "properties": {}}, {"name": "F", "species": [{"element": "F", "occu": 1}], "xyz": [4.946926, 0.948183, -0.886804], "properties": {}}, {"name": "F", "species": [{"element": "F", "occu": 1}], "xyz": [5.880564, -0.368899, -2.341418], "properties": {}}, {"name": "O", "species": [{"element": "O", "occu": 1}], "xyz": [2.952779, -0.099542, 1.029503], "properties": {}}, {"name": "O", "species": [{"element": "O", "occu": 1}], "xyz": [4.057936, -1.064608, -1.390576], "properties": {}}, {"name": "C", "species": [{"element": "C", "occu": 1}], "xyz": [2.196342, -0.029706, -0.076709], "properties": {}}, {"name": "C", "species": [{"element": "C", "occu": 1}], "xyz": [2.68519, -1.089413, -1.092784], "properties": {}}, {"name": "C", "species": [{"element": "C", "occu": 1}], "xyz": [2.669465, 0.863792, 2.087452], "properties": {}}, {"name": "C", "species": [{"element": "C", "occu": 1}], "xyz": [3.601526, 0.53875, 3.237591], "properties": {}}, {"name": "C", "species": [{"element": "C", "occu": 1}], "xyz": [4.701747, 0.047217, -1.860232], "properties": {}}, {"name": "H", "species": [{"element": "H", "occu": 1}], "xyz": [2.520273, -2.079218, -0.66543], "properties": {}}, {"name": "H", "species": [{"element": "H", "occu": 1}], "xyz": [2.846091, 1.868169, 1.690982], "properties": {}}, {"name": "H", "species": [{"element": "H", "occu": 1}], "xyz": [1.616782, 0.767747, 2.372807], "properties": {}}, {"name": "H", "species": [{"element": "H", "occu": 1}], "xyz": [4.646638, 0.615465, 2.920776], "properties": {}}, {"name": "H", "species": [{"element": "H", "occu": 1}], "xyz": [3.432853, 1.245953, 4.057568], "properties": {}}, {"name": "H", "species": [{"element": "H", "occu": 1}], "xyz": [3.421918, -0.475154, 3.609804], "properties": {}}]}, "smiles": "FC(F)(OCC)[C@@H](F)OC(F)(F)F", "inchi": "InChI=1S/C5H6F6O2/c1-2-12-4(7,8)3(6)13-5(9,10)11/h3H,2H2,1H3/t3-/m0/s1", "formula_alphabetical": "C5 F6 H6 O2", "chemsys": "C-F-H-O", "energy": -943.689262347, "esp": {"1": ["F", -0.201064], "2": ["F", -0.172128], "3": ["F", -0.202616], "4": ["F", -0.161884], "5": ["F", -0.173606], "6": ["F", -0.17975], "7": ["O", -0.386866], "8": ["O", -0.348959], "9": ["C", 0.348282], "10": ["C", 0.331918], "11": ["C", 0.375956], "12": ["C", -0.369923], "13": ["C", 0.655263], "14": ["H", 0.127418], "15": ["H", 0.019709], "16": ["H", 0.017212], "17": ["H", 0.120393], "18": ["H", 0.089545], "19": ["H", 0.111099]}, "dipole_moment": {"X": -0.0459, "Y": -0.2354, "Z": 3.5006, "Tot": 3.5088}, "functional": "B3LYP", "basis": "6-31+G*", "phase": "gas", "tag": "lis", "state": "successful", "wall_time (s)": 11.989419055054896, "version": "0.0.1", "gauss_version": "ES64L-G16RevC.01", "last_updated": "2021-09-09 18:45:01.399000", "polarizability": 72.94, "fluorinated-solvent": "17943925", "run_ids": ["613a4aeb6b00e91a13a5bbf2", "613a56241e0bfa16654c70c5"]}