{"_id": "61411319c9e84e36bdf833ca", "molecule": {"@module": "pymatgen.core.structure", "@class": "Molecule", "charge": 0, "spin_multiplicity": 1, "sites": [{"name": "F", "species": [{"element": "F", "occu": 1}], "xyz": [3.500863, 2.220081, 2.447205], "properties": {}}, {"name": "F", "species": [{"element": "F", "occu": 1}], "xyz": [1.461809, 1.65826, 3.085566], "properties": {}}, {"name": "F", "species": [{"element": "F", "occu": 1}], "xyz": [0.189256, -0.418459, -0.395379], "properties": {}}, {"name": "F", "species": [{"element": "F", "occu": 1}], "xyz": [0.499023, -2.575447, -0.063555], "properties": {}}, {"name": "F", "species": [{"element": "F", "occu": 1}], "xyz": [3.461933, 1.31978, 4.937564], "properties": {}}, {"name": "F", "species": [{"element": "F", "occu": 1}], "xyz": [2.315497, -0.480544, 4.393619], "properties": {}}, {"name": "F", "species": [{"element": "F", "occu": 1}], "xyz": [-1.752178, -2.64297, 1.556313], "properties": {}}, {"name": "F", "species": [{"element": "F", "occu": 1}], "xyz": [-2.061976, -0.486439, 1.191289], "properties": {}}, {"name": "O", "species": [{"element": "O", "occu": 1}], "xyz": [2.079794, -0.974621, 1.609867], "properties": {}}, {"name": "C", "species": [{"element": "C", "occu": 1}], "xyz": [2.682757, 1.147452, 2.718812], "properties": {}}, {"name": "C", "species": [{"element": "C", "occu": 1}], "xyz": [-0.022935, -1.44259, 0.504794], "properties": {}}, {"name": "C", "species": [{"element": "C", "occu": 1}], "xyz": [2.551393, 0.345051, 1.418588], "properties": {}}, {"name": "C", "species": [{"element": "C", "occu": 1}], "xyz": [0.685652, -1.135906, 1.821922], "properties": {}}, {"name": "C", "species": [{"element": "C", "occu": 1}], "xyz": [3.275962, 0.395017, 3.938508], "properties": {}}, {"name": "C", "species": [{"element": "C", "occu": 1}], "xyz": [-1.552466, -1.63915, 0.631075], "properties": {}}, {"name": "C", "species": [{"element": "C", "occu": 1}], "xyz": [4.565227, -0.342499, 3.671427], "properties": {}}, {"name": "C", "species": [{"element": "C", "occu": 1}], "xyz": [-2.274679, -1.959626, -0.651869], "properties": {}}, {"name": "H", "species": [{"element": "H", "occu": 1}], "xyz": [1.921763, 0.926694, 0.73556], "properties": {}}, {"name": "H", "species": [{"element": "H", "occu": 1}], "xyz": [3.547998, 0.250062, 0.980914], "properties": {}}, {"name": "H", "species": [{"element": "H", "occu": 1}], "xyz": [0.557203, -1.989234, 2.49077], "properties": {}}, {"name": "H", "species": [{"element": "H", "occu": 1}], "xyz": [0.225254, -0.256936, 2.280902], "properties": {}}, {"name": "H", "species": [{"element": "H", "occu": 1}], "xyz": [4.389817, -1.146448, 2.952552], "properties": {}}, {"name": "H", "species": [{"element": "H", "occu": 1}], "xyz": [5.318778, 0.349449, 3.285413], "properties": {}}, {"name": "H", "species": [{"element": "H", "occu": 1}], "xyz": [4.917158, -0.769641, 4.61414], "properties": {}}, {"name": "H", "species": [{"element": "H", "occu": 1}], "xyz": [-2.13362, -1.147739, -1.369013], "properties": {}}, {"name": "H", "species": [{"element": "H", "occu": 1}], "xyz": [-1.887073, -2.890041, -1.072763], "properties": {}}, {"name": "H", "species": [{"element": "H", "occu": 1}], "xyz": [-3.338936, -2.071774, -0.428502], "properties": {}}]}, "smiles": "FC(F)(COCC(F)(F)C(F)(F)C)C(F)(F)C", "inchi": "InChI=1S/C8H10F8O/c1-5(9,10)7(13,14)3-17-4-8(15,16)6(2,11)12/h3-4H2,1-2H3", "formula_alphabetical": "C8 F8 H10 O1", "chemsys": "C-F-H-O", "energy": -1184.89226567, "esp": {"1": ["F", -0.210642], "2": ["F", -0.173688], "3": ["F", -0.218056], "4": ["F", -0.221363], "5": ["F", -0.237254], "6": ["F", -0.237822], "7": ["F", -0.242303], "8": ["F", -0.231571], "9": ["O", -0.271912], "10": ["C", 0.278336], "11": ["C", 0.4453], "12": ["C", -0.092301], "13": ["C", -0.179701], "14": ["C", 0.536843], "15": ["C", 0.462363], "16": ["C", -0.416433], "17": ["C", -0.4832], "18": ["H", 0.150312], "19": ["H", 0.128832], "20": ["H", 0.169826], "21": ["H", 0.13147], "22": ["H", 0.130988], "23": ["H", 0.135649], "24": ["H", 0.154322], "25": ["H", 0.151873], "26": ["H", 0.158934], "27": ["H", 0.181196]}, "dipole_moment": {"X": 0.6465, "Y": -1.5009, "Z": -2.3575, "Tot": 2.8685}, "functional": "B3LYP", "basis": "6-31+G*", "phase": "gas", "tag": "lis", "state": "successful", "wall_time (s)": 21.56520735193044, "version": "0.0.1", "gauss_version": "ES64L-G16RevC.01", "last_updated": "2021-09-14 21:24:41.375000", "polarizability": 103.18, "fluorinated-solvent": "139935552", "run_ids": ["61411235001e680b963c2a2f", "614112be5e086eee73554aa9"]}