{"_id": "614116a5b6ec43e32fd501b5", "molecule": {"@module": "pymatgen.core.structure", "@class": "Molecule", "charge": 0, "spin_multiplicity": 1, "sites": [{"name": "F", "species": [{"element": "F", "occu": 1}], "xyz": [2.45626, -2.453556, -1.11934], "properties": {}}, {"name": "F", "species": [{"element": "F", "occu": 1}], "xyz": [2.436541, -1.939921, -3.233465], "properties": {}}, {"name": "F", "species": [{"element": "F", "occu": 1}], "xyz": [0.835474, -1.22746, -1.925245], "properties": {}}, {"name": "O", "species": [{"element": "O", "occu": 1}], "xyz": [5.025, 2.649448, 0.326108], "properties": {}}, {"name": "O", "species": [{"element": "O", "occu": 1}], "xyz": [2.801775, -0.312575, -1.721768], "properties": {}}, {"name": "C", "species": [{"element": "C", "occu": 1}], "xyz": [4.775521, 1.006913, -1.374844], "properties": {}}, {"name": "C", "species": [{"element": "C", "occu": 1}], "xyz": [4.414116, 1.399798, 0.053765], "properties": {}}, {"name": "C", "species": [{"element": "C", "occu": 1}], "xyz": [4.259001, -0.36541, -1.766348], "properties": {}}, {"name": "C", "species": [{"element": "C", "occu": 1}], "xyz": [4.724645, 3.158114, 1.621065], "properties": {}}, {"name": "C", "species": [{"element": "C", "occu": 1}], "xyz": [5.433711, 4.491854, 1.788925], "properties": {}}, {"name": "C", "species": [{"element": "C", "occu": 1}], "xyz": [2.154881, -1.451916, -1.993305], "properties": {}}, {"name": "H", "species": [{"element": "H", "occu": 1}], "xyz": [5.868139, 0.999511, -1.476298], "properties": {}}, {"name": "H", "species": [{"element": "H", "occu": 1}], "xyz": [4.389099, 1.760844, -2.070185], "properties": {}}, {"name": "H", "species": [{"element": "H", "occu": 1}], "xyz": [3.321272, 1.470754, 0.168475], "properties": {}}, {"name": "H", "species": [{"element": "H", "occu": 1}], "xyz": [4.775542, 0.634486, 0.764545], "properties": {}}, {"name": "H", "species": [{"element": "H", "occu": 1}], "xyz": [4.598418, -1.141093, -1.070453], "properties": {}}, {"name": "H", "species": [{"element": "H", "occu": 1}], "xyz": [4.565051, -0.632097, -2.782638], "properties": {}}, {"name": "H", "species": [{"element": "H", "occu": 1}], "xyz": [3.633409, 3.279139, 1.730126], "properties": {}}, {"name": "H", "species": [{"element": "H", "occu": 1}], "xyz": [5.057074, 2.439732, 2.3902], "properties": {}}, {"name": "H", "species": [{"element": "H", "occu": 1}], "xyz": [5.096691, 5.203135, 1.027116], "properties": {}}, {"name": "H", "species": [{"element": "H", "occu": 1}], "xyz": [5.222422, 4.913651, 2.778656], "properties": {}}, {"name": "H", "species": [{"element": "H", "occu": 1}], "xyz": [6.517087, 4.365679, 1.687288], "properties": {}}]}, "smiles": "FC(F)(F)OCCCOCC", "inchi": "InChI=1S/C6H11F3O2/c1-2-10-4-3-5-11-6(7,8)9/h2-5H2,1H3", "formula_alphabetical": "C6 F3 H11 O2", "chemsys": "C-F-H-O", "energy": -685.268231342, "esp": {"1": ["F", -0.197227], "2": ["F", -0.186106], "3": ["F", -0.162357], "4": ["O", -0.531068], "5": ["O", -0.327555], "6": ["C", -0.043653], "7": ["C", 0.306643], "8": ["C", 0.061283], "9": ["C", 0.438933], "10": ["C", -0.277778], "11": ["C", 0.584531], "12": ["H", 0.036096], "13": ["H", 0.061021], "14": ["H", -0.017576], "15": ["H", -0.010369], "16": ["H", 0.063383], "17": ["H", 0.077669], "18": ["H", -0.040703], "19": ["H", -0.052351], "20": ["H", 0.080459], "21": ["H", 0.054784], "22": ["H", 0.081941]}, "dipole_moment": {"X": 1.937, "Y": 0.783, "Z": 1.175, "Tot": 2.397}, "functional": "B3LYP", "basis": "6-31+G*", "phase": "gas", "tag": "lis", "state": "successful", "wall_time (s)": 10.02069066092372, "version": "0.0.1", "gauss_version": "ES64L-G16RevC.01", "last_updated": "2021-09-14 21:39:49.494000", "polarizability": 83.77, "fluorinated-solvent": "86622400", "run_ids": ["6141167fbe6c3b15d55d68a2", "614116940d70458f069520c8"]}