{"_id": "614126a354c421aaf0503a0d", "molecule": {"@module": "pymatgen.core.structure", "@class": "Molecule", "charge": 0, "spin_multiplicity": 1, "sites": [{"name": "F", "species": [{"element": "F", "occu": 1}], "xyz": [0.272558, 1.774757, -2.186242], "properties": {}}, {"name": "F", "species": [{"element": "F", "occu": 1}], "xyz": [0.461509, 2.386465, -4.304255], "properties": {}}, {"name": "F", "species": [{"element": "F", "occu": 1}], "xyz": [-2.087233, 2.541077, -3.34762], "properties": {}}, {"name": "F", "species": [{"element": "F", "occu": 1}], "xyz": [-1.865985, 0.95381, -4.875182], "properties": {}}, {"name": "O", "species": [{"element": "O", "occu": 1}], "xyz": [0.185141, -1.00421, -3.110228], "properties": {}}, {"name": "O", "species": [{"element": "O", "occu": 1}], "xyz": [0.56152, -1.865426, 1.006312], "properties": {}}, {"name": "C", "species": [{"element": "C", "occu": 1}], "xyz": [0.136995, -2.507347, -1.258522], "properties": {}}, {"name": "C", "species": [{"element": "C", "occu": 1}], "xyz": [0.794884, -1.261472, -1.834052], "properties": {}}, {"name": "C", "species": [{"element": "C", "occu": 1}], "xyz": [0.707211, 0.092913, -3.82577], "properties": {}}, {"name": "C", "species": [{"element": "C", "occu": 1}], "xyz": [0.749047, -2.919849, 0.074428], "properties": {}}, {"name": "C", "species": [{"element": "C", "occu": 1}], "xyz": [-0.008256, 1.397817, -3.481396], "properties": {}}, {"name": "C", "species": [{"element": "C", "occu": 1}], "xyz": [-1.539451, 1.318101, -3.595445], "properties": {}}, {"name": "C", "species": [{"element": "C", "occu": 1}], "xyz": [1.087638, -2.143029, 2.298618], "properties": {}}, {"name": "C", "species": [{"element": "C", "occu": 1}], "xyz": [0.82481, -0.9419, 3.191947], "properties": {}}, {"name": "H", "species": [{"element": "H", "occu": 1}], "xyz": [-0.935075, -2.320425, -1.123388], "properties": {}}, {"name": "H", "species": [{"element": "H", "occu": 1}], "xyz": [0.240196, -3.333554, -1.973305], "properties": {}}, {"name": "H", "species": [{"element": "H", "occu": 1}], "xyz": [1.87562, -1.425319, -1.977785], "properties": {}}, {"name": "H", "species": [{"element": "H", "occu": 1}], "xyz": [0.663141, -0.408661, -1.1607], "properties": {}}, {"name": "H", "species": [{"element": "H", "occu": 1}], "xyz": [0.550702, -0.100774, -4.890764], "properties": {}}, {"name": "H", "species": [{"element": "H", "occu": 1}], "xyz": [1.78094, 0.244175, -3.643828], "properties": {}}, {"name": "H", "species": [{"element": "H", "occu": 1}], "xyz": [0.269147, -3.842963, 0.440636], "properties": {}}, {"name": "H", "species": [{"element": "H", "occu": 1}], "xyz": [1.827267, -3.131767, -0.042724], "properties": {}}, {"name": "H", "species": [{"element": "H", "occu": 1}], "xyz": [-1.956069, 0.586136, -2.900306], "properties": {}}, {"name": "H", "species": [{"element": "H", "occu": 1}], "xyz": [0.608387, -3.048433, 2.709292], "properties": {}}, {"name": "H", "species": [{"element": "H", "occu": 1}], "xyz": [2.170067, -2.345636, 2.224948], "properties": {}}, {"name": "H", "species": [{"element": "H", "occu": 1}], "xyz": [-0.250691, -0.748609, 3.267414], "properties": {}}, {"name": "H", "species": [{"element": "H", "occu": 1}], "xyz": [1.218906, -1.122348, 4.199012], "properties": {}}, {"name": "H", "species": [{"element": "H", "occu": 1}], "xyz": [1.307475, -0.047419, 2.783504], "properties": {}}]}, "smiles": "FC(F)(COCCCOCC)C(F)F", "inchi": "InChI=1S/C8H14F4O2/c1-2-13-4-3-5-14-6-8(11,12)7(9)10/h7H,2-6H2,1H3", "formula_alphabetical": "C8 F4 H14 O2", "chemsys": "C-F-H-O", "energy": -863.113798327, "esp": {"1": ["F", -0.207869], "2": ["F", -0.220325], "3": ["F", -0.218264], "4": ["F", -0.224312], "5": ["O", -0.51624], "6": ["O", -0.408007], "7": ["C", -0.213433], "8": ["C", 0.438261], "9": ["C", 0.08457], "10": ["C", 0.141004], "11": ["C", 0.352828], "12": ["C", 0.365951], "13": ["C", 0.308325], "14": ["C", -0.287713], "15": ["H", 0.089572], "16": ["H", 0.064902], "17": ["H", 0.002452], "18": ["H", -0.055608], "19": ["H", 0.093422], "20": ["H", 0.059769], "21": ["H", 0.035476], "22": ["H", 0.001247], "23": ["H", 0.098306], "24": ["H", -0.012387], "25": ["H", -0.014456], "26": ["H", 0.085675], "27": ["H", 0.067903], "28": ["H", 0.088951]}, "dipole_moment": {"X": 2.003, "Y": -3.675, "Z": 2.1369, "Tot": 4.6994}, "functional": "B3LYP", "basis": "6-31+G*", "phase": "gas", "tag": "lis", "state": "successful", "wall_time (s)": 14.745122861932032, "version": "0.0.1", "gauss_version": "ES64L-G16RevC.01", "last_updated": "2021-09-14 22:48:03.324000", "polarizability": 107.43, "fluorinated-solvent": "88866037", "run_ids": ["6141267b902ffef9cd2795ad", "6141269c487dbbaa60704455"]}