{"_id": "614112820b31fdae7f5dea9b", "molecule": {"@module": "pymatgen.core.structure", "@class": "Molecule", "charge": 0, "spin_multiplicity": 1, "sites": [{"name": "F", "species": [{"element": "F", "occu": 1}], "xyz": [1.048666, -0.204622, -0.508982], "properties": {}}, {"name": "F", "species": [{"element": "F", "occu": 1}], "xyz": [2.752283, 1.166962, -0.414948], "properties": {}}, {"name": "F", "species": [{"element": "F", "occu": 1}], "xyz": [2.200308, 1.568291, 4.666093], "properties": {}}, {"name": "F", "species": [{"element": "F", "occu": 1}], "xyz": [0.471292, 0.239173, 4.574082], "properties": {}}, {"name": "F", "species": [{"element": "F", "occu": 1}], "xyz": [2.223322, -0.328856, 5.748079], "properties": {}}, {"name": "O", "species": [{"element": "O", "occu": 1}], "xyz": [2.64818, -0.551108, 1.043173], "properties": {}}, {"name": "C", "species": [{"element": "C", "occu": 1}], "xyz": [1.998522, 0.215803, 2.078053], "properties": {}}, {"name": "C", "species": [{"element": "C", "occu": 1}], "xyz": [2.426692, -0.430249, 3.390665], "properties": {}}, {"name": "C", "species": [{"element": "C", "occu": 1}], "xyz": [2.40992, -0.167555, -0.241454], "properties": {}}, {"name": "C", "species": [{"element": "C", "occu": 1}], "xyz": [3.154136, -1.040544, -1.229609], "properties": {}}, {"name": "C", "species": [{"element": "C", "occu": 1}], "xyz": [1.82967, 0.262981, 4.594109], "properties": {}}, {"name": "C", "species": [{"element": "C", "occu": 1}], "xyz": [4.673844, -0.996619, -1.045095], "properties": {}}, {"name": "H", "species": [{"element": "H", "occu": 1}], "xyz": [2.324101, 1.258517, 2.022208], "properties": {}}, {"name": "H", "species": [{"element": "H", "occu": 1}], "xyz": [0.913731, 0.168382, 1.945519], "properties": {}}, {"name": "H", "species": [{"element": "H", "occu": 1}], "xyz": [2.112041, -1.47776, 3.418876], "properties": {}}, {"name": "H", "species": [{"element": "H", "occu": 1}], "xyz": [3.515533, -0.396632, 3.492879], "properties": {}}, {"name": "H", "species": [{"element": "H", "occu": 1}], "xyz": [2.77004, -2.058789, -1.107156], "properties": {}}, {"name": "H", "species": [{"element": "H", "occu": 1}], "xyz": [2.866858, -0.694321, -2.22781], "properties": {}}, {"name": "H", "species": [{"element": "H", "occu": 1}], "xyz": [4.959154, -1.358349, -0.052328], "properties": {}}, {"name": "H", "species": [{"element": "H", "occu": 1}], "xyz": [5.160415, -1.630048, -1.794316], "properties": {}}, {"name": "H", "species": [{"element": "H", "occu": 1}], "xyz": [5.054015, 0.023483, -1.162217], "properties": {}}]}, "smiles": "FC(F)(OCCC(F)(F)F)CC", "inchi": "InChI=1S/C6H9F5O/c1-2-6(10,11)12-4-3-5(7,8)9/h2-4H2,1H3", "formula_alphabetical": "C6 F5 H9 O1", "chemsys": "C-F-H-O", "energy": -808.562255803, "esp": {"1": ["F", -0.26595], "2": ["F", -0.237078], "3": ["F", -0.214384], "4": ["F", -0.213332], "5": ["F", -0.212984], "6": ["O", -0.369008], "7": ["C", 0.25861], "8": ["C", -0.374992], "9": ["C", 0.513622], "10": ["C", -0.016703], "11": ["C", 0.615346], "12": ["C", -0.172257], "13": ["H", 0.046486], "14": ["H", 0.055669], "15": ["H", 0.149962], "16": ["H", 0.156973], "17": ["H", 0.049851], "18": ["H", 0.059439], "19": ["H", 0.048665], "20": ["H", 0.060556], "21": ["H", 0.06151]}, "dipole_moment": {"X": 1.694, "Y": -1.8296, "Z": -1.3594, "Tot": 2.8399}, "functional": "B3LYP", "basis": "6-31+G*", "phase": "gas", "tag": "lis", "state": "successful", "wall_time (s)": 11.145698984037153, "version": "0.0.1", "gauss_version": "ES64L-G16RevC.01", "last_updated": "2021-09-14 21:22:10.060000", "polarizability": 78.89, "fluorinated-solvent": "88558544", "run_ids": ["614111b7850a4bec4fdd4915", "6141122b8962f47bff3d4c40"]}