{"_id": "61412865a1ffea99699ee69c", "molecule": {"@module": "pymatgen.core.structure", "@class": "Molecule", "charge": 0, "spin_multiplicity": 1, "sites": [{"name": "F", "species": [{"element": "F", "occu": 1}], "xyz": [0.994145, 0.096209, -0.039599], "properties": {}}, {"name": "F", "species": [{"element": "F", "occu": 1}], "xyz": [2.732986, -0.974641, -0.911714], "properties": {}}, {"name": "F", "species": [{"element": "F", "occu": 1}], "xyz": [6.45888, 1.518491, -0.708814], "properties": {}}, {"name": "O", "species": [{"element": "O", "occu": 1}], "xyz": [4.045617, 2.279081, 1.654939], "properties": {}}, {"name": "C", "species": [{"element": "C", "occu": 1}], "xyz": [2.362334, 2.672276, -0.126735], "properties": {}}, {"name": "C", "species": [{"element": "C", "occu": 1}], "xyz": [2.719781, 2.717681, 1.368114], "properties": {}}, {"name": "C", "species": [{"element": "C", "occu": 1}], "xyz": [2.826474, 1.390175, -0.837523], "properties": {}}, {"name": "C", "species": [{"element": "C", "occu": 1}], "xyz": [5.072945, 3.177541, 1.250482], "properties": {}}, {"name": "C", "species": [{"element": "C", "occu": 1}], "xyz": [6.416233, 2.494513, 1.4813], "properties": {}}, {"name": "C", "species": [{"element": "C", "occu": 1}], "xyz": [2.375416, 0.121459, -0.152592], "properties": {}}, {"name": "C", "species": [{"element": "C", "occu": 1}], "xyz": [6.571449, 1.219437, 0.669741], "properties": {}}, {"name": "H", "species": [{"element": "H", "occu": 1}], "xyz": [2.795782, 3.53129, -0.652723], "properties": {}}, {"name": "H", "species": [{"element": "H", "occu": 1}], "xyz": [1.273273, 2.774297, -0.210476], "properties": {}}, {"name": "H", "species": [{"element": "H", "occu": 1}], "xyz": [2.560466, 3.733369, 1.765197], "properties": {}}, {"name": "H", "species": [{"element": "H", "occu": 1}], "xyz": [2.071732, 2.039596, 1.932713], "properties": {}}, {"name": "H", "species": [{"element": "H", "occu": 1}], "xyz": [3.919651, 1.356641, -0.894398], "properties": {}}, {"name": "H", "species": [{"element": "H", "occu": 1}], "xyz": [2.441253, 1.366441, -1.863524], "properties": {}}, {"name": "H", "species": [{"element": "H", "occu": 1}], "xyz": [4.97162, 3.437302, 0.187617], "properties": {}}, {"name": "H", "species": [{"element": "H", "occu": 1}], "xyz": [5.00842, 4.108931, 1.836244], "properties": {}}, {"name": "H", "species": [{"element": "H", "occu": 1}], "xyz": [7.222325, 3.193614, 1.225435], "properties": {}}, {"name": "H", "species": [{"element": "H", "occu": 1}], "xyz": [6.520046, 2.238856, 2.544318], "properties": {}}, {"name": "H", "species": [{"element": "H", "occu": 1}], "xyz": [2.78502, -0.029351, 0.849747], "properties": {}}, {"name": "H", "species": [{"element": "H", "occu": 1}], "xyz": [7.554107, 0.759317, 0.816485], "properties": {}}, {"name": "H", "species": [{"element": "H", "occu": 1}], "xyz": [5.783465, 0.497408, 0.901679], "properties": {}}]}, "smiles": "FC(F)CCCOCCCF", "inchi": "InChI=1S/C7H13F3O/c8-4-2-6-11-5-1-3-7(9)10/h7H,1-6H2", "formula_alphabetical": "C7 F3 H13 O1", "chemsys": "C-F-H-O", "energy": -649.345455011, "esp": {"1": ["F", -0.291728], "2": ["F", -0.302952], "3": ["F", -0.303183], "4": ["O", -0.443756], "5": ["C", -0.20821], "6": ["C", 0.119382], "7": ["C", 0.091278], "8": ["C", 0.258874], "9": ["C", -0.24009], "10": ["C", 0.478843], "11": ["C", 0.28108], "12": ["H", 0.065318], "13": ["H", 0.066343], "14": ["H", 0.040446], "15": ["H", 0.047924], "16": ["H", 0.01139], "17": ["H", 0.026754], "18": ["H", 0.025223], "19": ["H", 0.012726], "20": ["H", 0.077209], "21": ["H", 0.082876], "22": ["H", 0.065952], "23": ["H", 0.035455], "24": ["H", 0.002849]}, "dipole_moment": {"X": 1.4804, "Y": 2.9754, "Z": 2.0652, "Tot": 3.9127}, "functional": "B3LYP", "basis": "6-31+G*", "phase": "gas", "tag": "lis", "state": "successful", "wall_time (s)": 11.137465570005588, "version": "0.0.1", "gauss_version": "ES64L-G16RevC.01", "last_updated": "2021-09-14 22:55:33.754000", "polarizability": 88.19, "fluorinated-solvent": "122541968", "run_ids": ["61412840f82a17d73fef5a44", "61412862ba16192ed0062322"]}