{"_id": "613a57e7ec73393a96529f9d", "molecule": {"@module": "pymatgen.core.structure", "@class": "Molecule", "charge": 0, "spin_multiplicity": 1, "sites": [{"name": "F", "species": [{"element": "F", "occu": 1}], "xyz": [2.464071, -2.739692, -3.040823], "properties": {}}, {"name": "F", "species": [{"element": "F", "occu": 1}], "xyz": [0.706407, -1.581154, -2.442365], "properties": {}}, {"name": "F", "species": [{"element": "F", "occu": 1}], "xyz": [3.956402, -0.383864, -3.205983], "properties": {}}, {"name": "F", "species": [{"element": "F", "occu": 1}], "xyz": [2.118855, -0.387596, -4.433227], "properties": {}}, {"name": "O", "species": [{"element": "O", "occu": 1}], "xyz": [2.541065, -1.54138, -1.129079], "properties": {}}, {"name": "O", "species": [{"element": "O", "occu": 1}], "xyz": [2.448421, -3.38951, 1.956694], "properties": {}}, {"name": "C", "species": [{"element": "C", "occu": 1}], "xyz": [2.182034, -2.64399, -0.257584], "properties": {}}, {"name": "C", "species": [{"element": "C", "occu": 1}], "xyz": [2.084736, -1.594354, -2.394728], "properties": {}}, {"name": "C", "species": [{"element": "C", "occu": 1}], "xyz": [2.790841, -2.320929, 1.096961], "properties": {}}, {"name": "C", "species": [{"element": "C", "occu": 1}], "xyz": [2.594927, -0.356082, -3.158318], "properties": {}}, {"name": "C", "species": [{"element": "C", "occu": 1}], "xyz": [2.958926, -3.233484, 3.271114], "properties": {}}, {"name": "H", "species": [{"element": "H", "occu": 1}], "xyz": [1.093143, -2.720234, -0.187695], "properties": {}}, {"name": "H", "species": [{"element": "H", "occu": 1}], "xyz": [2.592064, -3.575826, -0.656235], "properties": {}}, {"name": "H", "species": [{"element": "H", "occu": 1}], "xyz": [3.884216, -2.219378, 1.002408], "properties": {}}, {"name": "H", "species": [{"element": "H", "occu": 1}], "xyz": [2.390291, -1.364672, 1.471774], "properties": {}}, {"name": "H", "species": [{"element": "H", "occu": 1}], "xyz": [2.268697, 0.567282, -2.671983], "properties": {}}, {"name": "H", "species": [{"element": "H", "occu": 1}], "xyz": [4.059323, -3.186057, 3.269346], "properties": {}}, {"name": "H", "species": [{"element": "H", "occu": 1}], "xyz": [2.563561, -2.322575, 3.747838], "properties": {}}, {"name": "H", "species": [{"element": "H", "occu": 1}], "xyz": [2.636969, -4.107486, 3.842195], "properties": {}}]}, "smiles": "FC(F)(OCCOC)C(F)F", "inchi": "InChI=1S/C5H8F4O2/c1-10-2-3-11-5(8,9)4(6)7/h4H,2-3H2,1H3", "formula_alphabetical": "C5 F4 H8 O2", "chemsys": "C-F-H-O", "energy": -745.177277856, "esp": {"1": ["F", -0.180238], "2": ["F", -0.222603], "3": ["F", -0.194547], "4": ["F", -0.204868], "5": ["O", -0.487462], "6": ["O", -0.46305], "7": ["C", 0.260023], "8": ["C", 0.489886], "9": ["C", 0.208389], "10": ["C", 0.307255], "11": ["C", 0.084677], "12": ["H", 0.04414], "13": ["H", 0.042593], "14": ["H", 0.038639], "15": ["H", 0.030044], "16": ["H", 0.115169], "17": ["H", 0.028894], "18": ["H", 0.027184], "19": ["H", 0.075875]}, "dipole_moment": {"X": 0.3112, "Y": 0.8914, "Z": 3.7335, "Tot": 3.8511}, "functional": "B3LYP", "basis": "6-31+G*", "phase": "gas", "tag": "lis", "state": "successful", "wall_time (s)": 8.940041549969465, "version": "0.0.1", "gauss_version": "ES64L-G16RevC.01", "last_updated": "2021-09-09 18:52:23.072000", "polarizability": 72.51, "fluorinated-solvent": "69791", "run_ids": ["613a4b070ae1ef8b690a848a", "613a57dbfeeb719677ef3e5b"]}