{"_id": "61411b092f6c136d69680da9", "molecule": {"@module": "pymatgen.core.structure", "@class": "Molecule", "charge": 0, "spin_multiplicity": 1, "sites": [{"name": "F", "species": [{"element": "F", "occu": 1}], "xyz": [2.895021, -0.080838, -1.384056], "properties": {}}, {"name": "F", "species": [{"element": "F", "occu": 1}], "xyz": [3.195567, -0.812607, 0.676129], "properties": {}}, {"name": "F", "species": [{"element": "F", "occu": 1}], "xyz": [0.932598, -1.665495, -0.578406], "properties": {}}, {"name": "F", "species": [{"element": "F", "occu": 1}], "xyz": [0.616968, -0.528036, 1.280359], "properties": {}}, {"name": "F", "species": [{"element": "F", "occu": 1}], "xyz": [3.717451, 3.410466, 2.039432], "properties": {}}, {"name": "F", "species": [{"element": "F", "occu": 1}], "xyz": [1.645453, 3.801436, 1.469143], "properties": {}}, {"name": "F", "species": [{"element": "F", "occu": 1}], "xyz": [2.916066, 2.119254, 4.335442], "properties": {}}, {"name": "F", "species": [{"element": "F", "occu": 1}], "xyz": [-1.260309, -0.115239, -0.683673], "properties": {}}, {"name": "F", "species": [{"element": "F", "occu": 1}], "xyz": [-0.126637, 1.66913, -0.145466], "properties": {}}, {"name": "F", "species": [{"element": "F", "occu": 1}], "xyz": [0.279822, 0.645503, -2.029834], "properties": {}}, {"name": "F", "species": [{"element": "F", "occu": 1}], "xyz": [1.631032, 4.068296, 5.639204], "properties": {}}, {"name": "F", "species": [{"element": "F", "occu": 1}], "xyz": [3.048014, 4.965469, 4.24757], "properties": {}}, {"name": "F", "species": [{"element": "F", "occu": 1}], "xyz": [0.910204, 4.985878, 3.79642], "properties": {}}, {"name": "O", "species": [{"element": "O", "occu": 1}], "xyz": [2.343084, 1.670094, 1.666209], "properties": {}}, {"name": "C", "species": [{"element": "C", "occu": 1}], "xyz": [2.47681, 0.054, -0.08896], "properties": {}}, {"name": "C", "species": [{"element": "C", "occu": 1}], "xyz": [2.788231, 1.488402, 0.319267], "properties": {}}, {"name": "C", "species": [{"element": "C", "occu": 1}], "xyz": [0.993894, -0.432712, -0.01815], "properties": {}}, {"name": "C", "species": [{"element": "C", "occu": 1}], "xyz": [2.445247, 2.928382, 2.165043], "properties": {}}, {"name": "C", "species": [{"element": "C", "occu": 1}], "xyz": [2.006154, 2.885418, 3.64052], "properties": {}}, {"name": "C", "species": [{"element": "C", "occu": 1}], "xyz": [-0.054725, 0.461909, -0.74228], "properties": {}}, {"name": "C", "species": [{"element": "C", "occu": 1}], "xyz": [1.910197, 4.257511, 4.333673], "properties": {}}, {"name": "H", "species": [{"element": "H", "occu": 1}], "xyz": [3.872742, 1.611446, 0.24773], "properties": {}}, {"name": "H", "species": [{"element": "H", "occu": 1}], "xyz": [2.287006, 2.183966, -0.358137], "properties": {}}, {"name": "H", "species": [{"element": "H", "occu": 1}], "xyz": [1.021134, 2.412547, 3.691448], "properties": {}}]}, "smiles": "FC(F)(COC(F)(F)[C@@H](F)C(F)(F)F)C(F)(F)C(F)(F)F", "inchi": "InChI=1S/C7H3F13O/c8-2(4(11,12)13)5(14,15)21-1-3(9,10)6(16,17)7(18,19)20/h2H,1H2/t2-/m0/s1", "formula_alphabetical": "C7 F13 H3 O1", "chemsys": "C-F-H-O", "energy": -1641.78446964, "esp": {"1": ["F", -0.175695], "2": ["F", -0.124863], "3": ["F", -0.100358], "4": ["F", -0.107895], "5": ["F", -0.164912], "6": ["F", -0.179989], "7": ["F", -0.14615], "8": ["F", -0.148022], "9": ["F", -0.165395], "10": ["F", -0.156464], "11": ["F", -0.176633], "12": ["F", -0.161533], "13": ["F", -0.192175], "14": ["O", -0.224232], "15": ["C", 0.344585], "16": ["C", -0.231357], "17": ["C", 0.091966], "18": ["C", 0.451193], "19": ["C", -0.115147], "20": ["C", 0.537807], "21": ["C", 0.57303], "22": ["H", 0.207623], "23": ["H", 0.173712], "24": ["H", 0.190904]}, "dipole_moment": {"X": -0.4348, "Y": 0.2678, "Z": -1.2775, "Tot": 1.3758}, "functional": "B3LYP", "basis": "6-31+G*", "phase": "gas", "tag": "lis", "state": "successful", "wall_time (s)": 25.53899306501262, "version": "0.0.1", "gauss_version": "ES64L-G16RevC.01", "last_updated": "2021-09-14 21:58:33.064000", "polarizability": 96.87, "fluorinated-solvent": "75360833", "run_ids": ["61411ad76d0a2f005eb7b3a6", "61411affc8a086b69112a4e9"]}