{"_id": "61411649ffaeee766c8789c2", "molecule": {"@module": "pymatgen.core.structure", "@class": "Molecule", "charge": 0, "spin_multiplicity": 1, "sites": [{"name": "F", "species": [{"element": "F", "occu": 1}], "xyz": [2.941017, 1.173299, 0.626671], "properties": {}}, {"name": "F", "species": [{"element": "F", "occu": 1}], "xyz": [3.219947, 0.046225, -1.256556], "properties": {}}, {"name": "F", "species": [{"element": "F", "occu": 1}], "xyz": [2.342692, -5.80739, 0.803082], "properties": {}}, {"name": "F", "species": [{"element": "F", "occu": 1}], "xyz": [0.577064, -4.520412, 0.452682], "properties": {}}, {"name": "O", "species": [{"element": "O", "occu": 1}], "xyz": [2.335114, -2.303215, 0.16236], "properties": {}}, {"name": "C", "species": [{"element": "C", "occu": 1}], "xyz": [2.496009, 0.060685, -0.076589], "properties": {}}, {"name": "C", "species": [{"element": "C", "occu": 1}], "xyz": [2.898611, -1.150539, 0.75597], "properties": {}}, {"name": "C", "species": [{"element": "C", "occu": 1}], "xyz": [1.025142, 0.212004, -0.411248], "properties": {}}, {"name": "C", "species": [{"element": "C", "occu": 1}], "xyz": [2.675045, -3.501625, 0.828937], "properties": {}}, {"name": "C", "species": [{"element": "C", "occu": 1}], "xyz": [1.924059, -4.648568, 0.163261], "properties": {}}, {"name": "C", "species": [{"element": "C", "occu": 1}], "xyz": [0.11359, 0.24641, 0.819995], "properties": {}}, {"name": "C", "species": [{"element": "C", "occu": 1}], "xyz": [2.102196, -4.795593, -1.32772], "properties": {}}, {"name": "H", "species": [{"element": "H", "occu": 1}], "xyz": [3.997032, -1.201028, 0.778471], "properties": {}}, {"name": "H", "species": [{"element": "H", "occu": 1}], "xyz": [2.528932, -1.01371, 1.78249], "properties": {}}, {"name": "H", "species": [{"element": "H", "occu": 1}], "xyz": [0.934784, 1.13623, -0.993401], "properties": {}}, {"name": "H", "species": [{"element": "H", "occu": 1}], "xyz": [0.757385, -0.623826, -1.064943], "properties": {}}, {"name": "H", "species": [{"element": "H", "occu": 1}], "xyz": [3.755281, -3.700823, 0.762356], "properties": {}}, {"name": "H", "species": [{"element": "H", "occu": 1}], "xyz": [2.383077, -3.471957, 1.889179], "properties": {}}, {"name": "H", "species": [{"element": "H", "occu": 1}], "xyz": [0.414318, 1.03699, 1.51609], "properties": {}}, {"name": "H", "species": [{"element": "H", "occu": 1}], "xyz": [-0.920052, 0.440234, 0.515006], "properties": {}}, {"name": "H", "species": [{"element": "H", "occu": 1}], "xyz": [0.126049, -0.712018, 1.350728], "properties": {}}, {"name": "H", "species": [{"element": "H", "occu": 1}], "xyz": [1.763476, -3.884938, -1.826846], "properties": {}}, {"name": "H", "species": [{"element": "H", "occu": 1}], "xyz": [3.158034, -4.960629, -1.561318], "properties": {}}, {"name": "H", "species": [{"element": "H", "occu": 1}], "xyz": [1.515169, -5.650278, -1.674568], "properties": {}}]}, "smiles": "FC(F)(COCC(F)(F)C)CC", "inchi": "InChI=1S/C7H12F4O/c1-3-7(10,11)5-12-4-6(2,8)9/h3-5H2,1-2H3", "formula_alphabetical": "C7 F4 H12 O1", "chemsys": "C-F-H-O", "energy": -748.610457952, "esp": {"1": ["F", -0.241114], "2": ["F", -0.251775], "3": ["F", -0.292325], "4": ["F", -0.266319], "5": ["O", -0.201451], "6": ["C", 0.382372], "7": ["C", -0.139947], "8": ["C", 0.044516], "9": ["C", -0.19254], "10": ["C", 0.635053], "11": ["C", -0.285236], "12": ["C", -0.477005], "13": ["H", 0.142865], "14": ["H", 0.107275], "15": ["H", 0.059477], "16": ["H", 0.026238], "17": ["H", 0.118597], "18": ["H", 0.127504], "19": ["H", 0.081123], "20": ["H", 0.086597], "21": ["H", 0.090776], "22": ["H", 0.140292], "23": ["H", 0.145024], "24": ["H", 0.160003]}, "dipole_moment": {"X": 0.0687, "Y": -0.0882, "Z": 0.2043, "Tot": 0.2329}, "functional": "B3LYP", "basis": "6-31+G*", "phase": "gas", "tag": "lis", "state": "successful", "wall_time (s)": 12.875548945041373, "version": "0.0.1", "gauss_version": "ES64L-G16RevC.01", "last_updated": "2021-09-14 21:38:17.668000", "polarizability": 89.53, "fluorinated-solvent": "90376978", "run_ids": ["6141161f6f8515bc1ab908b9", "6141164114c516697e66ed1f"]}