{"_id": "613a57471a593732b9d89a19", "molecule": {"@module": "pymatgen.core.structure", "@class": "Molecule", "charge": 0, "spin_multiplicity": 1, "sites": [{"name": "F", "species": [{"element": "F", "occu": 1}], "xyz": [1.415623, -0.438677, -0.7626], "properties": {}}, {"name": "F", "species": [{"element": "F", "occu": 1}], "xyz": [3.555169, -0.129835, -1.062327], "properties": {}}, {"name": "F", "species": [{"element": "F", "occu": 1}], "xyz": [1.899463, -1.239144, 1.867079], "properties": {}}, {"name": "F", "species": [{"element": "F", "occu": 1}], "xyz": [2.972769, -2.393123, 0.357609], "properties": {}}, {"name": "F", "species": [{"element": "F", "occu": 1}], "xyz": [4.039017, -0.920478, 1.565216], "properties": {}}, {"name": "F", "species": [{"element": "F", "occu": 1}], "xyz": [0.751003, 2.343281, -0.277634], "properties": {}}, {"name": "O", "species": [{"element": "O", "occu": 1}], "xyz": [2.492769, 1.100982, 0.498174], "properties": {}}, {"name": "C", "species": [{"element": "C", "occu": 1}], "xyz": [2.564234, -0.10302, -0.116204], "properties": {}}, {"name": "C", "species": [{"element": "C", "occu": 1}], "xyz": [2.133045, 2.229279, -0.299898], "properties": {}}, {"name": "C", "species": [{"element": "C", "occu": 1}], "xyz": [2.876559, -1.191912, 0.949323], "properties": {}}, {"name": "C", "species": [{"element": "C", "occu": 1}], "xyz": [2.757905, 3.453453, 0.318189], "properties": {}}, {"name": "H", "species": [{"element": "H", "occu": 1}], "xyz": [2.422795, 2.056125, -1.339894], "properties": {}}, {"name": "H", "species": [{"element": "H", "occu": 1}], "xyz": [3.848449, 3.376678, 0.277988], "properties": {}}, {"name": "H", "species": [{"element": "H", "occu": 1}], "xyz": [2.436048, 4.342747, -0.230913], "properties": {}}, {"name": "H", "species": [{"element": "H", "occu": 1}], "xyz": [2.440323, 3.538522, 1.361603], "properties": {}}]}, "smiles": "FC(F)(O[C@@H](F)C)C(F)(F)F", "inchi": "InChI=1S/C4H4F6O/c1-2(5)11-4(9,10)3(6,7)8/h2H,1H3/t2-/m1/s1", "formula_alphabetical": "C4 F6 H4 O1", "chemsys": "C-F-H-O", "energy": -829.158079861, "esp": {"1": ["F", -0.147724], "2": ["F", -0.168578], "3": ["F", -0.144098], "4": ["F", -0.151769], "5": ["F", -0.157027], "6": ["F", -0.274154], "7": ["O", -0.332588], "8": ["C", 0.314871], "9": ["C", 0.557507], "10": ["C", 0.481743], "11": ["C", -0.52827], "12": ["H", 0.061033], "13": ["H", 0.151958], "14": ["H", 0.152331], "15": ["H", 0.184762]}, "dipole_moment": {"X": 1.345, "Y": 2.5205, "Z": -0.4881, "Tot": 2.8983}, "functional": "B3LYP", "basis": "6-31+G*", "phase": "gas", "tag": "lis", "state": "successful", "wall_time (s)": 7.390372422058135, "version": "0.0.1", "gauss_version": "ES64L-G16RevC.01", "last_updated": "2021-09-09 18:49:42.943000", "polarizability": 57.78, "fluorinated-solvent": "56612536", "run_ids": ["613a4afca91fd71ed3ddf6a6", "613a573db66987383251d9dd"]}