{"_id": "61410db246f12f3ab13ae430", "molecule": {"@module": "pymatgen.core.structure", "@class": "Molecule", "charge": 0, "spin_multiplicity": 1, "sites": [{"name": "F", "species": [{"element": "F", "occu": 1}], "xyz": [4.700833, 6.125407, -3.515513], "properties": {}}, {"name": "F", "species": [{"element": "F", "occu": 1}], "xyz": [6.338103, 5.909897, -2.092045], "properties": {}}, {"name": "F", "species": [{"element": "F", "occu": 1}], "xyz": [5.303835, 7.827293, -2.281404], "properties": {}}, {"name": "F", "species": [{"element": "F", "occu": 1}], "xyz": [1.110403, 0.880289, 4.645379], "properties": {}}, {"name": "F", "species": [{"element": "F", "occu": 1}], "xyz": [0.822613, -0.204383, 2.77647], "properties": {}}, {"name": "F", "species": [{"element": "F", "occu": 1}], "xyz": [0.721246, -1.27129, 4.683132], "properties": {}}, {"name": "O", "species": [{"element": "O", "occu": 1}], "xyz": [4.861565, 1.541371, 0.150649], "properties": {}}, {"name": "O", "species": [{"element": "O", "occu": 1}], "xyz": [3.776973, 4.73888, -1.202856], "properties": {}}, {"name": "O", "species": [{"element": "O", "occu": 1}], "xyz": [3.628194, 0.429374, 3.386071], "properties": {}}, {"name": "C", "species": [{"element": "C", "occu": 1}], "xyz": [4.003366, 2.491849, -0.472528], "properties": {}}, {"name": "C", "species": [{"element": "C", "occu": 1}], "xyz": [4.75194, 1.461425, 1.567213], "properties": {}}, {"name": "C", "species": [{"element": "C", "occu": 1}], "xyz": [4.696508, 3.849455, -0.562285], "properties": {}}, {"name": "C", "species": [{"element": "C", "occu": 1}], "xyz": [3.697898, 0.427889, 1.956619], "properties": {}}, {"name": "C", "species": [{"element": "C", "occu": 1}], "xyz": [4.118426, 6.098814, -1.195804], "properties": {}}, {"name": "C", "species": [{"element": "C", "occu": 1}], "xyz": [2.868442, -0.594079, 3.971403], "properties": {}}, {"name": "C", "species": [{"element": "C", "occu": 1}], "xyz": [5.121118, 6.481472, -2.284336], "properties": {}}, {"name": "C", "species": [{"element": "C", "occu": 1}], "xyz": [1.372493, -0.284299, 4.016181], "properties": {}}, {"name": "H", "species": [{"element": "H", "occu": 1}], "xyz": [3.048919, 2.593211, 0.063242], "properties": {}}, {"name": "H", "species": [{"element": "H", "occu": 1}], "xyz": [3.788145, 2.119547, -1.47863], "properties": {}}, {"name": "H", "species": [{"element": "H", "occu": 1}], "xyz": [5.731528, 1.159948, 1.950741], "properties": {}}, {"name": "H", "species": [{"element": "H", "occu": 1}], "xyz": [4.498177, 2.433591, 2.013497], "properties": {}}, {"name": "H", "species": [{"element": "H", "occu": 1}], "xyz": [5.626288, 3.754506, -1.134496], "properties": {}}, {"name": "H", "species": [{"element": "H", "occu": 1}], "xyz": [4.944919, 4.224305, 0.443122], "properties": {}}, {"name": "H", "species": [{"element": "H", "occu": 1}], "xyz": [2.727037, 0.684417, 1.515311], "properties": {}}, {"name": "H", "species": [{"element": "H", "occu": 1}], "xyz": [3.994449, -0.565179, 1.587803], "properties": {}}, {"name": "H", "species": [{"element": "H", "occu": 1}], "xyz": [4.539579, 6.422592, -0.232413], "properties": {}}, {"name": "H", "species": [{"element": "H", "occu": 1}], "xyz": [3.204256, 6.66554, -1.393758], "properties": {}}, {"name": "H", "species": [{"element": "H", "occu": 1}], "xyz": [2.991256, -1.558072, 3.456466], "properties": {}}, {"name": "H", "species": [{"element": "H", "occu": 1}], "xyz": [3.201604, -0.698587, 5.007957], "properties": {}}]}, "smiles": "FC(F)(F)COCCOCCOCC(F)(F)F", "inchi": "InChI=1S/C8H12F6O3/c9-7(10,11)5-16-3-1-15-2-4-17-6-8(12,13)14/h1-6H2", "formula_alphabetical": "C8 F6 H12 O3", "chemsys": "C-F-H-O", "energy": -1136.82494155, "esp": {"1": ["F", -0.182766], "2": ["F", -0.211797], "3": ["F", -0.235856], "4": ["F", -0.199384], "5": ["F", -0.214468], "6": ["F", -0.246953], "7": ["O", -0.439766], "8": ["O", -0.444215], "9": ["O", -0.425699], "10": ["C", 0.052856], "11": ["C", -0.029367], "12": ["C", 0.344538], "13": ["C", 0.322723], "14": ["C", -0.152728], "15": ["C", -0.094918], "16": ["C", 0.613225], "17": ["C", 0.6437], "18": ["H", 0.07465], "19": ["H", 0.07759], "20": ["H", 0.102184], "21": ["H", 0.069548], "22": ["H", 0.017938], "23": ["H", 0.006996], "24": ["H", -0.002357], "25": ["H", 0.028107], "26": ["H", 0.116948], "27": ["H", 0.168889], "28": ["H", 0.096331], "29": ["H", 0.14405]}, "dipole_moment": {"X": 0.497, "Y": -0.8663, "Z": 1.7985, "Tot": 2.0572}, "functional": "B3LYP", "basis": "6-31+G*", "phase": "gas", "tag": "lis", "state": "successful", "wall_time (s)": 16.887743194005452, "version": "0.0.1", "gauss_version": "ES64L-G16RevC.01", "last_updated": "2021-09-14 21:01:38.183000", "polarizability": 113.45, "fluorinated-solvent": "87282326", "run_ids": ["61410d79a4e4aae0c67d1861", "61410d9625bf5725a5151d66"]}