{"_id": "613a4b8aeeb10cdb31dc1ffa", "molecule": {"@module": "pymatgen.core.structure", "@class": "Molecule", "charge": 0, "spin_multiplicity": 1, "sites": [{"name": "F", "species": [{"element": "F", "occu": 1}], "xyz": [0.992072, 0.536493, -0.328048], "properties": {}}, {"name": "F", "species": [{"element": "F", "occu": 1}], "xyz": [3.025943, 1.260807, -0.683339], "properties": {}}, {"name": "F", "species": [{"element": "F", "occu": 1}], "xyz": [2.042051, 2.37082, 1.64281], "properties": {}}, {"name": "F", "species": [{"element": "F", "occu": 1}], "xyz": [0.72807, 0.795538, 2.404119], "properties": {}}, {"name": "F", "species": [{"element": "F", "occu": 1}], "xyz": [1.985299, -2.085653, -0.110055], "properties": {}}, {"name": "F", "species": [{"element": "F", "occu": 1}], "xyz": [4.151282, 1.329216, 3.183246], "properties": {}}, {"name": "O", "species": [{"element": "O", "occu": 1}], "xyz": [2.57896, 0.200427, 1.258072], "properties": {}}, {"name": "C", "species": [{"element": "C", "occu": 1}], "xyz": [2.302887, 0.256655, -0.096525], "properties": {}}, {"name": "C", "species": [{"element": "C", "occu": 1}], "xyz": [2.036813, 1.108667, 2.149938], "properties": {}}, {"name": "C", "species": [{"element": "C", "occu": 1}], "xyz": [2.715799, -1.072959, -0.739998], "properties": {}}, {"name": "C", "species": [{"element": "C", "occu": 1}], "xyz": [2.815347, 1.029917, 3.469066], "properties": {}}, {"name": "C", "species": [{"element": "C", "occu": 1}], "xyz": [2.452693, -1.111985, -2.232506], "properties": {}}, {"name": "C", "species": [{"element": "C", "occu": 1}], "xyz": [2.294189, 1.991373, 4.518975], "properties": {}}, {"name": "H", "species": [{"element": "H", "occu": 1}], "xyz": [3.771944, -1.232521, -0.498769], "properties": {}}, {"name": "H", "species": [{"element": "H", "occu": 1}], "xyz": [2.777464, -0.012265, 3.803004], "properties": {}}, {"name": "H", "species": [{"element": "H", "occu": 1}], "xyz": [3.032216, -0.3371, -2.743213], "properties": {}}, {"name": "H", "species": [{"element": "H", "occu": 1}], "xyz": [2.749844, -2.090179, -2.620992], "properties": {}}, {"name": "H", "species": [{"element": "H", "occu": 1}], "xyz": [1.389421, -0.956429, -2.435963], "properties": {}}, {"name": "H", "species": [{"element": "H", "occu": 1}], "xyz": [1.254955, 1.757767, 4.769051], "properties": {}}, {"name": "H", "species": [{"element": "H", "occu": 1}], "xyz": [2.904975, 1.898362, 5.421402], "properties": {}}, {"name": "H", "species": [{"element": "H", "occu": 1}], "xyz": [2.352057, 3.020998, 4.154759], "properties": {}}]}, "smiles": "FC(F)(OC(F)(F)[C@@H](F)C)[C@@H](F)C", "inchi": "InChI=1S/C6H8F6O/c1-3(7)5(9,10)13-6(11,12)4(2)8/h3-4H,1-2H3/t3-,4-/m0/s1", "formula_alphabetical": "C6 F6 H8 O1", "chemsys": "C-F-H-O", "energy": -907.786504525, "esp": {"1": ["F", -0.182861], "2": ["F", -0.218866], "3": ["F", -0.174824], "4": ["F", -0.208729], "5": ["F", -0.269542], "6": ["F", -0.263477], "7": ["O", -0.450335], "8": ["C", 0.554088], "9": ["C", 0.519973], "10": ["C", 0.30671], "11": ["C", 0.294817], "12": ["C", -0.442669], "13": ["C", -0.444072], "14": ["H", 0.070986], "15": ["H", 0.078425], "16": ["H", 0.122592], "17": ["H", 0.146989], "18": ["H", 0.142987], "19": ["H", 0.124032], "20": ["H", 0.148035], "21": ["H", 0.14574]}, "dipole_moment": {"X": 0.6648, "Y": -0.7903, "Z": 0.3765, "Tot": 1.0992}, "functional": "B3LYP", "basis": "6-31+G*", "phase": "gas", "tag": "lis", "state": "successful", "wall_time (s)": 18.101600407040678, "version": "0.0.1", "gauss_version": "ES64L-G16RevC.01", "last_updated": "2021-09-09 17:59:38.268000", "polarizability": 80.17, "fluorinated-solvent": "54393034", "run_ids": ["613a48f9a8e1afa54f1ff6c5", "613a4b27b32917c27fe6d192"]}