{"_id": "614120a5fde799659fce46fd", "molecule": {"@module": "pymatgen.core.structure", "@class": "Molecule", "charge": 0, "spin_multiplicity": 1, "sites": [{"name": "F", "species": [{"element": "F", "occu": 1}], "xyz": [1.055001, -0.635566, 0.036747], "properties": {}}, {"name": "F", "species": [{"element": "F", "occu": 1}], "xyz": [3.157966, -1.101805, -0.296365], "properties": {}}, {"name": "F", "species": [{"element": "F", "occu": 1}], "xyz": [3.508393, 0.379841, -2.785767], "properties": {}}, {"name": "F", "species": [{"element": "F", "occu": 1}], "xyz": [2.88236, 0.077889, 3.593837], "properties": {}}, {"name": "O", "species": [{"element": "O", "occu": 1}], "xyz": [2.377391, 0.939853, -0.881586], "properties": {}}, {"name": "O", "species": [{"element": "O", "occu": 1}], "xyz": [2.526592, -0.546906, 2.339027], "properties": {}}, {"name": "C", "species": [{"element": "C", "occu": 1}], "xyz": [2.312145, -0.081318, 0.031051], "properties": {}}, {"name": "C", "species": [{"element": "C", "occu": 1}], "xyz": [2.657104, 0.509165, 1.396956], "properties": {}}, {"name": "C", "species": [{"element": "C", "occu": 1}], "xyz": [2.255815, 0.592799, -2.244768], "properties": {}}, {"name": "H", "species": [{"element": "H", "occu": 1}], "xyz": [3.686452, 0.878469, 1.36703], "properties": {}}, {"name": "H", "species": [{"element": "H", "occu": 1}], "xyz": [1.955031, 1.317998, 1.620387], "properties": {}}, {"name": "H", "species": [{"element": "H", "occu": 1}], "xyz": [1.666761, -0.318101, -2.374478], "properties": {}}, {"name": "H", "species": [{"element": "H", "occu": 1}], "xyz": [1.813543, 1.457381, -2.740413], "properties": {}}]}, "smiles": "FC(F)(OCF)COF", "inchi": "InChI=1S/C3H4F4O2/c4-2-8-3(5,6)1-9-7/h1-2H2", "formula_alphabetical": "C3 F4 H4 O2", "chemsys": "C-F-H-O", "energy": -666.440818038, "esp": {"1": ["F", -0.221592], "2": ["F", -0.18932], "3": ["F", -0.245079], "4": ["F", -0.080888], "5": ["O", -0.412719], "6": ["O", -0.135011], "7": ["C", 0.630673], "8": ["C", -0.122342], "9": ["C", 0.318821], "10": ["H", 0.154756], "11": ["H", 0.143809], "12": ["H", 0.066215], "13": ["H", 0.092677]}, "dipole_moment": {"X": -1.2701, "Y": 2.1859, "Z": -1.6433, "Tot": 3.0152}, "functional": "B3LYP", "basis": "6-31+G*", "phase": "gas", "tag": "lis", "state": "successful", "wall_time (s)": 6.144188188016415, "version": "0.0.1", "gauss_version": "ES64L-G16RevC.01", "last_updated": "2021-09-14 22:22:28.967000", "polarizability": 51.27, "fluorinated-solvent": "58937547", "run_ids": ["6141208fe15dc17d26c550be", "6141209b8c7bb28f81297c2f"]}