{"_id": "613a5495eb2f99c98751324b", "molecule": {"@module": "pymatgen.core.structure", "@class": "Molecule", "charge": 0, "spin_multiplicity": 1, "sites": [{"name": "F", "species": [{"element": "F", "occu": 1}], "xyz": [2.805621, 1.06626, -0.859822], "properties": {}}, {"name": "F", "species": [{"element": "F", "occu": 1}], "xyz": [3.160828, -1.090195, -0.518854], "properties": {}}, {"name": "O", "species": [{"element": "O", "occu": 1}], "xyz": [2.223044, -0.716674, 2.173257], "properties": {}}, {"name": "C", "species": [{"element": "C", "occu": 1}], "xyz": [2.384983, -0.022801, -0.104402], "properties": {}}, {"name": "C", "species": [{"element": "C", "occu": 1}], "xyz": [2.730256, 0.304671, 1.343423], "properties": {}}, {"name": "C", "species": [{"element": "C", "occu": 1}], "xyz": [0.935341, -0.317111, -0.402247], "properties": {}}, {"name": "C", "species": [{"element": "C", "occu": 1}], "xyz": [2.570512, -0.545326, 3.537965], "properties": {}}, {"name": "H", "species": [{"element": "H", "occu": 1}], "xyz": [3.825311, 0.386578, 1.420804], "properties": {}}, {"name": "H", "species": [{"element": "H", "occu": 1}], "xyz": [2.285548, 1.281041, 1.594518], "properties": {}}, {"name": "H", "species": [{"element": "H", "occu": 1}], "xyz": [0.318177, 0.545364, -0.133721], "properties": {}}, {"name": "H", "species": [{"element": "H", "occu": 1}], "xyz": [0.825151, -0.524637, -1.470129], "properties": {}}, {"name": "H", "species": [{"element": "H", "occu": 1}], "xyz": [0.614692, -1.183578, 0.180411], "properties": {}}, {"name": "H", "species": [{"element": "H", "occu": 1}], "xyz": [3.662826, -0.558993, 3.676171], "properties": {}}, {"name": "H", "species": [{"element": "H", "occu": 1}], "xyz": [2.171793, 0.401072, 3.936861], "properties": {}}, {"name": "H", "species": [{"element": "H", "occu": 1}], "xyz": [2.127706, -1.381544, 4.084037], "properties": {}}]}, "smiles": "FC(F)(COC)C", "inchi": "InChI=1S/C4H8F2O/c1-4(5,6)3-7-2/h3H2,1-2H3", "formula_alphabetical": "C4 F2 H8 O1", "chemsys": "C-F-H-O", "energy": -432.165590686, "esp": {"1": ["F", -0.304257], "2": ["F", -0.266544], "3": ["O", -0.294422], "4": ["C", 0.59544], "5": ["C", -0.053299], "6": ["C", -0.383028], "7": ["C", -0.09499], "8": ["H", 0.094685], "9": ["H", 0.084919], "10": ["H", 0.119652], "11": ["H", 0.138999], "12": ["H", 0.103795], "13": ["H", 0.080761], "14": ["H", 0.074963], "15": ["H", 0.103327]}, "dipole_moment": {"X": -1.1067, "Y": 0.8091, "Z": 2.4764, "Tot": 2.8306}, "functional": "B3LYP", "basis": "6-31+G*", "phase": "gas", "tag": "lis", "state": "successful", "wall_time (s)": 5.683443007059395, "version": "0.0.1", "gauss_version": "ES64L-G16RevC.01", "last_updated": "2021-09-09 18:38:12.777000", "polarizability": 54.46, "fluorinated-solvent": "23537883", "run_ids": ["613a4ad5fa9364d2da7d5636", "613a549053b189775d6513d6"]}