{"_id": "61411a9aab5958c5bc65131b", "molecule": {"@module": "pymatgen.core.structure", "@class": "Molecule", "charge": 0, "spin_multiplicity": 1, "sites": [{"name": "F", "species": [{"element": "F", "occu": 1}], "xyz": [4.941457, -0.404725, -1.913036], "properties": {}}, {"name": "F", "species": [{"element": "F", "occu": 1}], "xyz": [5.173574, -0.289661, 0.282707], "properties": {}}, {"name": "F", "species": [{"element": "F", "occu": 1}], "xyz": [6.443979, -2.429759, -0.778238], "properties": {}}, {"name": "F", "species": [{"element": "F", "occu": 1}], "xyz": [4.678741, -3.057918, 0.40188], "properties": {}}, {"name": "F", "species": [{"element": "F", "occu": 1}], "xyz": [-1.534554, -3.080876, -1.465408], "properties": {}}, {"name": "F", "species": [{"element": "F", "occu": 1}], "xyz": [-1.550835, -1.386155, -2.841052], "properties": {}}, {"name": "F", "species": [{"element": "F", "occu": 1}], "xyz": [-1.425334, -3.422921, -3.619896], "properties": {}}, {"name": "O", "species": [{"element": "O", "occu": 1}], "xyz": [2.437516, -1.671302, -1.518218], "properties": {}}, {"name": "C", "species": [{"element": "C", "occu": 1}], "xyz": [3.058941, -0.863087, -0.540065], "properties": {}}, {"name": "C", "species": [{"element": "C", "occu": 1}], "xyz": [4.563689, -0.981954, -0.727436], "properties": {}}, {"name": "C", "species": [{"element": "C", "occu": 1}], "xyz": [1.016121, -1.640751, -1.452142], "properties": {}}, {"name": "C", "species": [{"element": "C", "occu": 1}], "xyz": [0.508669, -2.549824, -2.567169], "properties": {}}, {"name": "C", "species": [{"element": "C", "occu": 1}], "xyz": [5.083296, -2.430265, -0.747832], "properties": {}}, {"name": "C", "species": [{"element": "C", "occu": 1}], "xyz": [-1.000681, -2.610011, -2.623569], "properties": {}}, {"name": "H", "species": [{"element": "H", "occu": 1}], "xyz": [2.808039, -1.193797, 0.477482], "properties": {}}, {"name": "H", "species": [{"element": "H", "occu": 1}], "xyz": [2.790478, 0.197672, -0.652591], "properties": {}}, {"name": "H", "species": [{"element": "H", "occu": 1}], "xyz": [0.672966, -1.998438, -0.470201], "properties": {}}, {"name": "H", "species": [{"element": "H", "occu": 1}], "xyz": [0.652513, -0.612257, -1.59277], "properties": {}}, {"name": "H", "species": [{"element": "H", "occu": 1}], "xyz": [0.866859, -2.190947, -3.536625], "properties": {}}, {"name": "H", "species": [{"element": "H", "occu": 1}], "xyz": [0.878602, -3.56899, -2.4203], "properties": {}}, {"name": "H", "species": [{"element": "H", "occu": 1}], "xyz": [4.700135, -2.981524, -1.608851], "properties": {}}]}, "smiles": "FC(F)(COCCC(F)(F)F)C(F)F", "inchi": "InChI=1S/C6H7F7O/c7-4(8)5(9,10)3-14-2-1-6(11,12)13/h4H,1-3H2", "formula_alphabetical": "C6 F7 H7 O1", "chemsys": "C-F-H-O", "energy": -1007.02105279, "esp": {"1": ["F", -0.210787], "2": ["F", -0.20434], "3": ["F", -0.202667], "4": ["F", -0.20326], "5": ["F", -0.234719], "6": ["F", -0.233927], "7": ["F", -0.225177], "8": ["O", -0.373159], "9": ["C", -0.128356], "10": ["C", 0.394852], "11": ["C", 0.327606], "12": ["C", -0.384977], "13": ["C", 0.330435], "14": ["C", 0.684678], "15": ["H", 0.103871], "16": ["H", 0.146241], "17": ["H", 0.017564], "18": ["H", 0.012024], "19": ["H", 0.148032], "20": ["H", 0.144114], "21": ["H", 0.091954]}, "dipole_moment": {"X": -1.3139, "Y": 0.1027, "Z": -0.1763, "Tot": 1.3297}, "functional": "B3LYP", "basis": "6-31+G*", "phase": "gas", "tag": "lis", "state": "successful", "wall_time (s)": 11.575828526052646, "version": "0.0.1", "gauss_version": "ES64L-G16RevC.01", "last_updated": "2021-09-14 21:56:42.306000", "polarizability": 80.81, "fluorinated-solvent": "88850894", "run_ids": ["61411a7be2b650222d7e19c2", "61411a90f0e1d1f15ef7deb4"]}