{"_id": "613a52e688aa6fe72d907078", "molecule": {"@module": "pymatgen.core.structure", "@class": "Molecule", "charge": 0, "spin_multiplicity": 1, "sites": [{"name": "F", "species": [{"element": "F", "occu": 1}], "xyz": [1.559013, -2.985946, 0.70683], "properties": {}}, {"name": "F", "species": [{"element": "F", "occu": 1}], "xyz": [2.533339, -2.305578, -1.123317], "properties": {}}, {"name": "F", "species": [{"element": "F", "occu": 1}], "xyz": [1.105054, -1.01276, -0.100788], "properties": {}}, {"name": "F", "species": [{"element": "F", "occu": 1}], "xyz": [4.173544, -3.331474, 1.696559], "properties": {}}, {"name": "F", "species": [{"element": "F", "occu": 1}], "xyz": [5.052522, -2.43626, -0.089607], "properties": {}}, {"name": "F", "species": [{"element": "F", "occu": 1}], "xyz": [5.366546, -1.513822, 1.862188], "properties": {}}, {"name": "O", "species": [{"element": "O", "occu": 1}], "xyz": [2.706199, -0.925283, 2.16687], "properties": {}}, {"name": "C", "species": [{"element": "C", "occu": 1}], "xyz": [3.219566, -1.261852, 0.915805], "properties": {}}, {"name": "C", "species": [{"element": "C", "occu": 1}], "xyz": [2.984961, 0.419814, 2.64871], "properties": {}}, {"name": "C", "species": [{"element": "C", "occu": 1}], "xyz": [2.092686, -1.916479, 0.09456], "properties": {}}, {"name": "C", "species": [{"element": "C", "occu": 1}], "xyz": [4.458688, -2.165381, 1.093875], "properties": {}}, {"name": "C", "species": [{"element": "C", "occu": 1}], "xyz": [2.055161, 1.427499, 1.977753], "properties": {}}, {"name": "C", "species": [{"element": "C", "occu": 1}], "xyz": [2.804114, 0.354697, 4.157809], "properties": {}}, {"name": "H", "species": [{"element": "H", "occu": 1}], "xyz": [3.555211, -0.39361, 0.334392], "properties": {}}, {"name": "H", "species": [{"element": "H", "occu": 1}], "xyz": [4.033297, 0.653041, 2.415617], "properties": {}}, {"name": "H", "species": [{"element": "H", "occu": 1}], "xyz": [1.01094, 1.183397, 2.200608], "properties": {}}, {"name": "H", "species": [{"element": "H", "occu": 1}], "xyz": [2.26845, 2.437701, 2.346155], "properties": {}}, {"name": "H", "species": [{"element": "H", "occu": 1}], "xyz": [2.176376, 1.43551, 0.888831], "properties": {}}, {"name": "H", "species": [{"element": "H", "occu": 1}], "xyz": [3.485496, -0.382013, 4.594234], "properties": {}}, {"name": "H", "species": [{"element": "H", "occu": 1}], "xyz": [3.00792, 1.333845, 4.605244], "properties": {}}, {"name": "H", "species": [{"element": "H", "occu": 1}], "xyz": [1.775857, 0.066157, 4.403075], "properties": {}}]}, "smiles": "FC(F)(F)C(OC(C)C)C(F)(F)F", "inchi": "InChI=1S/C6H8F6O/c1-3(2)13-4(5(7,8)9)6(10,11)12/h3-4H,1-2H3", "formula_alphabetical": "C6 F6 H8 O1", "chemsys": "C-F-H-O", "energy": -907.781763577, "esp": {"1": ["F", -0.160542], "2": ["F", -0.194283], "3": ["F", -0.186114], "4": ["F", -0.170321], "5": ["F", -0.204586], "6": ["F", -0.196654], "7": ["O", -0.392804], "8": ["C", -0.18081], "9": ["C", 0.599009], "10": ["C", 0.568083], "11": ["C", 0.598537], "12": ["C", -0.500783], "13": ["C", -0.462397], "14": ["H", 0.156537], "15": ["H", -0.026227], "16": ["H", 0.149259], "17": ["H", 0.114725], "18": ["H", 0.123948], "19": ["H", 0.12366], "20": ["H", 0.110967], "21": ["H", 0.130796]}, "dipole_moment": {"X": 0.2763, "Y": 3.4309, "Z": 0.9627, "Tot": 3.5741}, "functional": "B3LYP", "basis": "6-31+G*", "phase": "gas", "tag": "lis", "state": "successful", "wall_time (s)": 13.457680877996609, "version": "0.0.1", "gauss_version": "ES64L-G16RevC.01", "last_updated": "2021-09-09 18:31:01.819000", "polarizability": 80.42, "fluorinated-solvent": "54109691", "run_ids": ["613a4ab7e3c04968be9e30d9", "613a52de63f825650bc1d90b"]}