{"_id": "6141142ed70aef6b35c56df4", "molecule": {"@module": "pymatgen.core.structure", "@class": "Molecule", "charge": 0, "spin_multiplicity": 1, "sites": [{"name": "F", "species": [{"element": "F", "occu": 1}], "xyz": [1.306713, 0.203495, 0.296158], "properties": {}}, {"name": "F", "species": [{"element": "F", "occu": 1}], "xyz": [2.91258, 0.297165, -1.178874], "properties": {}}, {"name": "F", "species": [{"element": "F", "occu": 1}], "xyz": [3.378018, 0.392949, 0.95034], "properties": {}}, {"name": "F", "species": [{"element": "F", "occu": 1}], "xyz": [2.14728, -3.804496, -0.811908], "properties": {}}, {"name": "F", "species": [{"element": "F", "occu": 1}], "xyz": [0.658013, -2.221258, -0.98847], "properties": {}}, {"name": "F", "species": [{"element": "F", "occu": 1}], "xyz": [2.451608, -2.175652, -2.231395], "properties": {}}, {"name": "F", "species": [{"element": "F", "occu": 1}], "xyz": [2.959852, -2.134328, 4.196167], "properties": {}}, {"name": "O", "species": [{"element": "O", "occu": 1}], "xyz": [2.312371, -2.128527, 1.361567], "properties": {}}, {"name": "C", "species": [{"element": "C", "occu": 1}], "xyz": [2.743493, -1.710743, 0.100568], "properties": {}}, {"name": "C", "species": [{"element": "C", "occu": 1}], "xyz": [2.566301, -0.181091, 0.037517], "properties": {}}, {"name": "C", "species": [{"element": "C", "occu": 1}], "xyz": [1.977044, -2.470616, -1.003105], "properties": {}}, {"name": "C", "species": [{"element": "C", "occu": 1}], "xyz": [3.127692, -3.105628, 2.020126], "properties": {}}, {"name": "C", "species": [{"element": "C", "occu": 1}], "xyz": [2.62261, -3.259248, 3.43517], "properties": {}}, {"name": "H", "species": [{"element": "H", "occu": 1}], "xyz": [3.810704, -1.903456, -0.072043], "properties": {}}, {"name": "H", "species": [{"element": "H", "occu": 1}], "xyz": [3.058479, -4.070985, 1.500733], "properties": {}}, {"name": "H", "species": [{"element": "H", "occu": 1}], "xyz": [4.175451, -2.774234, 2.035084], "properties": {}}, {"name": "H", "species": [{"element": "H", "occu": 1}], "xyz": [1.532603, -3.360981, 3.451849], "properties": {}}, {"name": "H", "species": [{"element": "H", "occu": 1}], "xyz": [3.089079, -4.132597, 3.905568], "properties": {}}]}, "smiles": "FC(F)(F)C(OCCF)C(F)(F)F", "inchi": "InChI=1S/C5H5F7O/c6-1-2-13-3(4(7,8)9)5(10,11)12/h3H,1-2H2", "formula_alphabetical": "C5 F7 H5 O1", "chemsys": "C-F-H-O", "energy": -967.697363723, "esp": {"1": ["F", -0.174753], "2": ["F", -0.206673], "3": ["F", -0.181235], "4": ["F", -0.192617], "5": ["F", -0.175083], "6": ["F", -0.204151], "7": ["F", -0.26483], "8": ["O", -0.301273], "9": ["C", -0.129726], "10": ["C", 0.599052], "11": ["C", 0.599509], "12": ["C", 0.044588], "13": ["C", 0.152123], "14": ["H", 0.140376], "15": ["H", 0.057051], "16": ["H", 0.099884], "17": ["H", 0.084537], "18": ["H", 0.05322]}, "dipole_moment": {"X": 1.7491, "Y": -3.2245, "Z": 0.3799, "Tot": 3.6879}, "functional": "B3LYP", "basis": "6-31+G*", "phase": "gas", "tag": "lis", "state": "successful", "wall_time (s)": 12.042610042961314, "version": "0.0.1", "gauss_version": "ES64L-G16RevC.01", "last_updated": "2021-09-14 21:29:18.249000", "polarizability": 69.69, "fluorinated-solvent": "87724621", "run_ids": ["614113986a7c5ef81b2fa266", "614113edbafb3f3bc3c10bf7"]}