{"_id": "61412391ebb717e97aeed0bc", "molecule": {"@module": "pymatgen.core.structure", "@class": "Molecule", "charge": 0, "spin_multiplicity": 2, "sites": [{"name": "F", "species": [{"element": "F", "occu": 1}], "xyz": [1.070771, 0.268888, 0.276026], "properties": {}}, {"name": "F", "species": [{"element": "F", "occu": 1}], "xyz": [3.04431, 0.05284, 1.252511], "properties": {}}, {"name": "O", "species": [{"element": "O", "occu": 1}], "xyz": [3.979322, -1.246487, -1.129347], "properties": {}}, {"name": "C", "species": [{"element": "C", "occu": 1}], "xyz": [2.432438, 0.169129, 0.019465], "properties": {}}, {"name": "C", "species": [{"element": "C", "occu": 1}], "xyz": [2.616421, -1.135852, -0.745657], "properties": {}}, {"name": "C", "species": [{"element": "C", "occu": 1}], "xyz": [2.915369, 1.426687, -0.660705], "properties": {}}, {"name": "C", "species": [{"element": "C", "occu": 1}], "xyz": [4.303737, -2.373816, -1.821597], "properties": {}}, {"name": "H", "species": [{"element": "H", "occu": 1}], "xyz": [2.325088, -1.968701, -0.093807], "properties": {}}, {"name": "H", "species": [{"element": "H", "occu": 1}], "xyz": [1.966433, -1.120291, -1.631814], "properties": {}}, {"name": "H", "species": [{"element": "H", "occu": 1}], "xyz": [2.395461, 1.558091, -1.61425], "properties": {}}, {"name": "H", "species": [{"element": "H", "occu": 1}], "xyz": [2.70791, 2.282971, -0.013282], "properties": {}}, {"name": "H", "species": [{"element": "H", "occu": 1}], "xyz": [3.98989, 1.352976, -0.843222], "properties": {}}, {"name": "H", "species": [{"element": "H", "occu": 1}], "xyz": [3.522997, -2.867307, -2.398267], "properties": {}}, {"name": "H", "species": [{"element": "H", "occu": 1}], "xyz": [5.341411, -2.400956, -2.129996], "properties": {}}]}, "smiles": "FC(F)(CO[CH2])C", "inchi": "InChI=1S/C4H7F2O/c1-4(5,6)3-7-2/h2-3H2,1H3", "formula_alphabetical": "C4 F2 H7 O1", "chemsys": "C-F-H-O", "energy": -431.501980479, "esp": {"1": ["F", -0.285163], "2": ["F", -0.252723], "3": ["O", -0.11523], "4": ["C", 0.550123], "5": ["C", -0.101007], "6": ["C", -0.389383], "7": ["C", -0.38029], "8": ["H", 0.120972], "9": ["H", 0.119817], "10": ["H", 0.123813], "11": ["H", 0.147575], "12": ["H", 0.106023], "13": ["H", 0.16893], "14": ["H", 0.186542]}, "dipole_moment": {"X": -0.0249, "Y": -0.0021, "Z": -2.5039, "Tot": 2.504}, "functional": "B3LYP", "basis": "6-31+G*", "phase": "gas", "tag": "lis", "state": "successful", "wall_time (s)": 7.279516350943595, "version": "0.0.1", "gauss_version": "ES64L-G16RevC.01", "last_updated": "2021-09-14 22:34:56.871000", "polarizability": 55.17, "fluorinated-solvent": "58544217", "run_ids": ["6141237a1c4f74d1277a76c5", "6141238877f4d8a0b8bde082"]}