{"_id": "613a51a73d3720467f0897c5", "molecule": {"@module": "pymatgen.core.structure", "@class": "Molecule", "charge": 0, "spin_multiplicity": 1, "sites": [{"name": "F", "species": [{"element": "F", "occu": 1}], "xyz": [4.571254, 1.314754, 0.041562], "properties": {}}, {"name": "F", "species": [{"element": "F", "occu": 1}], "xyz": [4.791423, -0.600822, -1.051087], "properties": {}}, {"name": "F", "species": [{"element": "F", "occu": 1}], "xyz": [0.766391, 3.547412, -3.265173], "properties": {}}, {"name": "F", "species": [{"element": "F", "occu": 1}], "xyz": [-0.940892, 3.391204, -1.860682], "properties": {}}, {"name": "O", "species": [{"element": "O", "occu": 1}], "xyz": [2.231731, 1.822277, -1.519945], "properties": {}}, {"name": "C", "species": [{"element": "C", "occu": 1}], "xyz": [2.745975, 0.532575, -1.256216], "properties": {}}, {"name": "C", "species": [{"element": "C", "occu": 1}], "xyz": [0.821082, 1.862876, -1.595755], "properties": {}}, {"name": "C", "species": [{"element": "C", "occu": 1}], "xyz": [4.251217, 0.663652, -1.122611], "properties": {}}, {"name": "C", "species": [{"element": "C", "occu": 1}], "xyz": [0.427781, 3.281095, -1.962834], "properties": {}}, {"name": "H", "species": [{"element": "H", "occu": 1}], "xyz": [2.523983, -0.161629, -2.080903], "properties": {}}, {"name": "H", "species": [{"element": "H", "occu": 1}], "xyz": [2.345618, 0.1158, -0.3194], "properties": {}}, {"name": "H", "species": [{"element": "H", "occu": 1}], "xyz": [0.432677, 1.180345, -2.367049], "properties": {}}, {"name": "H", "species": [{"element": "H", "occu": 1}], "xyz": [0.3622, 1.60853, -0.628266], "properties": {}}, {"name": "H", "species": [{"element": "H", "occu": 1}], "xyz": [4.721898, 1.200051, -1.951422], "properties": {}}, {"name": "H", "species": [{"element": "H", "occu": 1}], "xyz": [0.889516, 4.04408, -1.32971], "properties": {}}]}, "smiles": "FC(F)COCC(F)F", "inchi": "InChI=1S/C4H6F4O/c5-3(6)1-9-2-4(7)8/h3-4H,1-2H2", "formula_alphabetical": "C4 F4 H6 O1", "chemsys": "C-F-H-O", "energy": -630.645797645, "esp": {"1": ["F", -0.258922], "2": ["F", -0.290535], "3": ["F", -0.247009], "4": ["F", -0.280083], "5": ["O", -0.410009], "6": ["C", -0.025633], "7": ["C", 0.018179], "8": ["C", 0.528812], "9": ["C", 0.471296], "10": ["H", 0.08213], "11": ["H", 0.109845], "12": ["H", 0.101658], "13": ["H", 0.074643], "14": ["H", 0.05492], "15": ["H", 0.07071]}, "dipole_moment": {"X": -0.7734, "Y": -1.0773, "Z": 0.1623, "Tot": 1.3361}, "functional": "B3LYP", "basis": "6-31+G*", "phase": "gas", "tag": "lis", "state": "successful", "wall_time (s)": 11.935866664978676, "version": "0.0.1", "gauss_version": "ES64L-G16RevC.01", "last_updated": "2021-09-09 18:25:43.524000", "polarizability": 56.12, "fluorinated-solvent": "18924246", "run_ids": ["613a4aa600657f6d9fab2c9e", "613a519e27c39744eaa58e89"]}