{"_id": "613a4f726457377158cd1a27", "molecule": {"@module": "pymatgen.core.structure", "@class": "Molecule", "charge": 0, "spin_multiplicity": 1, "sites": [{"name": "F", "species": [{"element": "F", "occu": 1}], "xyz": [0.779072, -0.947845, 1.025611], "properties": {}}, {"name": "F", "species": [{"element": "F", "occu": 1}], "xyz": [1.914806, -2.703227, 1.655382], "properties": {}}, {"name": "F", "species": [{"element": "F", "occu": 1}], "xyz": [1.958393, -2.058838, -0.431963], "properties": {}}, {"name": "F", "species": [{"element": "F", "occu": 1}], "xyz": [4.662845, -2.187374, 0.062729], "properties": {}}, {"name": "F", "species": [{"element": "F", "occu": 1}], "xyz": [5.478531, -0.556184, 1.311996], "properties": {}}, {"name": "O", "species": [{"element": "O", "occu": 1}], "xyz": [2.970769, -0.110736, 2.411504], "properties": {}}, {"name": "C", "species": [{"element": "C", "occu": 1}], "xyz": [3.138782, -0.7044, 1.154235], "properties": {}}, {"name": "C", "species": [{"element": "C", "occu": 1}], "xyz": [2.511813, 1.254574, 2.408859], "properties": {}}, {"name": "C", "species": [{"element": "C", "occu": 1}], "xyz": [1.940163, -1.620627, 0.844474], "properties": {}}, {"name": "C", "species": [{"element": "C", "occu": 1}], "xyz": [4.463553, -1.472885, 1.214176], "properties": {}}, {"name": "C", "species": [{"element": "C", "occu": 1}], "xyz": [2.481302, 1.741751, 3.849728], "properties": {}}, {"name": "C", "species": [{"element": "C", "occu": 1}], "xyz": [3.864334, 1.766303, 4.510192], "properties": {}}, {"name": "H", "species": [{"element": "H", "occu": 1}], "xyz": [3.207586, 0.029323, 0.339657], "properties": {}}, {"name": "H", "species": [{"element": "H", "occu": 1}], "xyz": [3.207134, 1.860497, 1.807324], "properties": {}}, {"name": "H", "species": [{"element": "H", "occu": 1}], "xyz": [1.513867, 1.303763, 1.954538], "properties": {}}, {"name": "H", "species": [{"element": "H", "occu": 1}], "xyz": [4.523785, -2.150525, 2.069214], "properties": {}}, {"name": "H", "species": [{"element": "H", "occu": 1}], "xyz": [2.042956, 2.749171, 3.847176], "properties": {}}, {"name": "H", "species": [{"element": "H", "occu": 1}], "xyz": [1.797525, 1.099421, 4.419531], "properties": {}}, {"name": "H", "species": [{"element": "H", "occu": 1}], "xyz": [4.551241, 2.422623, 3.960475], "properties": {}}, {"name": "H", "species": [{"element": "H", "occu": 1}], "xyz": [3.799171, 2.134096, 5.540514], "properties": {}}, {"name": "H", "species": [{"element": "H", "occu": 1}], "xyz": [4.304419, 0.764318, 4.53213], "properties": {}}]}, "smiles": "FC(F)(F)[C@@H](OCCC)C(F)F", "inchi": "InChI=1S/C6H9F5O/c1-2-3-12-4(5(7)8)6(9,10)11/h4-5H,2-3H2,1H3/t4-/m0/s1", "formula_alphabetical": "C6 F5 H9 O1", "chemsys": "C-F-H-O", "energy": -808.527637595, "esp": {"1": ["F", -0.147857], "2": ["F", -0.167588], "3": ["F", -0.173963], "4": ["F", -0.249095], "5": ["F", -0.235067], "6": ["O", -0.366691], "7": ["C", -0.03049], "8": ["C", 0.103873], "9": ["C", 0.44387], "10": ["C", 0.448338], "11": ["C", 0.113442], "12": ["C", -0.199801], "13": ["H", 0.138822], "14": ["H", 0.050354], "15": ["H", 0.020467], "16": ["H", 0.08528], "17": ["H", -0.010849], "18": ["H", 0.019731], "19": ["H", 0.053871], "20": ["H", 0.050952], "21": ["H", 0.052402]}, "dipole_moment": {"X": -0.381, "Y": 2.3258, "Z": 1.1634, "Tot": 2.6283}, "functional": "B3LYP", "basis": "6-31+G*", "phase": "gas", "tag": "lis", "state": "successful", "wall_time (s)": 10.379256944055669, "version": "0.0.1", "gauss_version": "ES64L-G16RevC.01", "last_updated": "2021-09-09 18:16:18.612000", "polarizability": 79.69, "fluorinated-solvent": "53945674", "run_ids": ["613a4a74384ce00d4e0d6a4f", "613a4f62899789732bb26bf4"]}