{"_id": "613a5077e1f16c2404eb4597", "molecule": {"@module": "pymatgen.core.structure", "@class": "Molecule", "charge": 0, "spin_multiplicity": 1, "sites": [{"name": "F", "species": [{"element": "F", "occu": 1}], "xyz": [5.046296, 1.183589, -2.17329], "properties": {}}, {"name": "F", "species": [{"element": "F", "occu": 1}], "xyz": [4.787487, -0.195801, -0.501599], "properties": {}}, {"name": "F", "species": [{"element": "F", "occu": 1}], "xyz": [4.606081, 1.956439, -0.178749], "properties": {}}, {"name": "O", "species": [{"element": "O", "occu": 1}], "xyz": [1.066802, -0.176648, -2.48733], "properties": {}}, {"name": "C", "species": [{"element": "C", "occu": 1}], "xyz": [2.834809, 0.886408, -1.335914], "properties": {}}, {"name": "C", "species": [{"element": "C", "occu": 1}], "xyz": [2.470932, -0.229312, -2.313007], "properties": {}}, {"name": "C", "species": [{"element": "C", "occu": 1}], "xyz": [4.315438, 0.95675, -1.048636], "properties": {}}, {"name": "C", "species": [{"element": "C", "occu": 1}], "xyz": [0.570476, -1.168362, -3.382767], "properties": {}}, {"name": "C", "species": [{"element": "C", "occu": 1}], "xyz": [-0.937048, -1.008394, -3.484529], "properties": {}}, {"name": "H", "species": [{"element": "H", "occu": 1}], "xyz": [2.316051, 0.735059, -0.384514], "properties": {}}, {"name": "H", "species": [{"element": "H", "occu": 1}], "xyz": [2.526114, 1.854689, -1.741283], "properties": {}}, {"name": "H", "species": [{"element": "H", "occu": 1}], "xyz": [2.987469, -0.082666, -3.274923], "properties": {}}, {"name": "H", "species": [{"element": "H", "occu": 1}], "xyz": [2.775855, -1.208462, -1.910652], "properties": {}}, {"name": "H", "species": [{"element": "H", "occu": 1}], "xyz": [1.04492, -1.046845, -4.371191], "properties": {}}, {"name": "H", "species": [{"element": "H", "occu": 1}], "xyz": [0.833516, -2.17194, -3.007955], "properties": {}}, {"name": "H", "species": [{"element": "H", "occu": 1}], "xyz": [-1.192403, -0.012412, -3.862048], "properties": {}}, {"name": "H", "species": [{"element": "H", "occu": 1}], "xyz": [-1.353104, -1.758106, -4.167682], "properties": {}}, {"name": "H", "species": [{"element": "H", "occu": 1}], "xyz": [-1.403362, -1.135037, -2.501564], "properties": {}}]}, "smiles": "FC(F)(F)CCOCC", "inchi": "InChI=1S/C5H9F3O/c1-2-9-4-3-5(6,7)8/h2-4H2,1H3", "formula_alphabetical": "C5 F3 H9 O1", "chemsys": "C-F-H-O", "energy": -570.735789951, "esp": {"1": ["F", -0.232245], "2": ["F", -0.229266], "3": ["F", -0.229923], "4": ["O", -0.473622], "5": ["C", -0.279124], "6": ["C", 0.306875], "7": ["C", 0.645531], "8": ["C", 0.358163], "9": ["C", -0.299277], "10": ["H", 0.118516], "11": ["H", 0.118423], "12": ["H", -0.001949], "13": ["H", -0.006803], "14": ["H", -0.020627], "15": ["H", -0.022434], "16": ["H", 0.089638], "17": ["H", 0.068303], "18": ["H", 0.08982]}, "dipole_moment": {"X": -1.9668, "Y": -1.1885, "Z": -1.2852, "Tot": 2.633}, "functional": "B3LYP", "basis": "6-31+G*", "phase": "gas", "tag": "lis", "state": "successful", "wall_time (s)": 8.140418541966937, "version": "0.0.1", "gauss_version": "ES64L-G16RevC.01", "last_updated": "2021-09-09 18:20:38.760000", "polarizability": 67.21, "fluorinated-solvent": "21657861", "run_ids": ["613a4a8cc7355a8f84ad8d2c", "613a506f7a693f3e7d6db94e"]}