{"_id": "6141251409e7507ac31b01d3", "molecule": {"@module": "pymatgen.core.structure", "@class": "Molecule", "charge": 0, "spin_multiplicity": 1, "sites": [{"name": "F", "species": [{"element": "F", "occu": 1}], "xyz": [5.148649, 1.871577, -0.044405], "properties": {}}, {"name": "F", "species": [{"element": "F", "occu": 1}], "xyz": [4.055658, 2.26478, 1.808673], "properties": {}}, {"name": "F", "species": [{"element": "F", "occu": 1}], "xyz": [4.989129, -0.866809, 0.382829], "properties": {}}, {"name": "F", "species": [{"element": "F", "occu": 1}], "xyz": [6.374521, -1.108906, 2.658123], "properties": {}}, {"name": "F", "species": [{"element": "F", "occu": 1}], "xyz": [7.024614, 0.687859, 1.611629], "properties": {}}, {"name": "F", "species": [{"element": "F", "occu": 1}], "xyz": [5.755499, 0.852512, 3.382228], "properties": {}}, {"name": "O", "species": [{"element": "O", "occu": 1}], "xyz": [3.046991, 1.080162, 0.17721], "properties": {}}, {"name": "C", "species": [{"element": "C", "occu": 1}], "xyz": [2.43915, 2.179944, -0.597482], "properties": {}}, {"name": "C", "species": [{"element": "C", "occu": 1}], "xyz": [2.675898, 1.914649, -2.08689], "properties": {}}, {"name": "C", "species": [{"element": "C", "occu": 1}], "xyz": [4.207054, 1.329971, 0.799031], "properties": {}}, {"name": "C", "species": [{"element": "C", "occu": 1}], "xyz": [4.722837, 0.014074, 1.412479], "properties": {}}, {"name": "C", "species": [{"element": "C", "occu": 1}], "xyz": [0.979491, 2.238628, -0.171017], "properties": {}}, {"name": "C", "species": [{"element": "C", "occu": 1}], "xyz": [2.082384, 0.600034, -2.60683], "properties": {}}, {"name": "C", "species": [{"element": "C", "occu": 1}], "xyz": [5.996009, 0.128981, 2.269349], "properties": {}}, {"name": "H", "species": [{"element": "H", "occu": 1}], "xyz": [2.945498, 3.106639, -0.309474], "properties": {}}, {"name": "H", "species": [{"element": "H", "occu": 1}], "xyz": [2.255701, 2.766097, -2.640544], "properties": {}}, {"name": "H", "species": [{"element": "H", "occu": 1}], "xyz": [3.757576, 1.926864, -2.262375], "properties": {}}, {"name": "H", "species": [{"element": "H", "occu": 1}], "xyz": [3.932588, -0.401868, 2.043575], "properties": {}}, {"name": "H", "species": [{"element": "H", "occu": 1}], "xyz": [0.901839, 2.495872, 0.889883], "properties": {}}, {"name": "H", "species": [{"element": "H", "occu": 1}], "xyz": [0.450204, 2.99974, -0.755867], "properties": {}}, {"name": "H", "species": [{"element": "H", "occu": 1}], "xyz": [0.486575, 1.274484, -0.328685], "properties": {}}, {"name": "H", "species": [{"element": "H", "occu": 1}], "xyz": [0.98812, 0.591367, -2.54592], "properties": {}}, {"name": "H", "species": [{"element": "H", "occu": 1}], "xyz": [2.355388, 0.449887, -3.657237], "properties": {}}, {"name": "H", "species": [{"element": "H", "occu": 1}], "xyz": [2.463377, -0.252099, -2.033966], "properties": {}}]}, "smiles": "FC(F)(O[C@@H](CC)C)[C@@H](F)C(F)(F)F", "inchi": "InChI=1S/C7H10F6O/c1-3-4(2)14-7(12,13)5(8)6(9,10)11/h4-5H,3H2,1-2H3/t4-,5+/m1/s1", "formula_alphabetical": "C7 F6 H10 O1", "chemsys": "C-F-H-O", "energy": -947.096023927, "esp": {"1": ["F", -0.203583], "2": ["F", -0.22152], "3": ["F", -0.149777], "4": ["F", -0.192011], "5": ["F", -0.168219], "6": ["F", -0.197352], "7": ["O", -0.366398], "8": ["C", 0.350844], "9": ["C", 0.019452], "10": ["C", 0.523632], "11": ["C", -0.121675], "12": ["C", -0.446615], "13": ["C", -0.091342], "14": ["C", 0.587373], "15": ["H", 0.020128], "16": ["H", -0.001321], "17": ["H", 0.0161], "18": ["H", 0.179691], "19": ["H", 0.123067], "20": ["H", 0.125029], "21": ["H", 0.128358], "22": ["H", 0.021805], "23": ["H", 0.033405], "24": ["H", 0.030929]}, "dipole_moment": {"X": -3.2905, "Y": 0.8844, "Z": -1.2193, "Tot": 3.6189}, "functional": "B3LYP", "basis": "6-31+G*", "phase": "gas", "tag": "lis", "state": "successful", "wall_time (s)": 13.898007774958387, "version": "0.0.1", "gauss_version": "ES64L-G16RevC.01", "last_updated": "2021-09-14 22:41:23.896000", "polarizability": 91.73, "fluorinated-solvent": "87400867", "run_ids": ["614124f81c711889eb888557", "6141250d5e1e36ad8dfdc90d"]}