{"_id": "613a4c1029f81daa93d95771", "molecule": {"@module": "pymatgen.core.structure", "@class": "Molecule", "charge": 0, "spin_multiplicity": 1, "sites": [{"name": "F", "species": [{"element": "F", "occu": 1}], "xyz": [0.679955, 1.203596, -0.945355], "properties": {}}, {"name": "F", "species": [{"element": "F", "occu": 1}], "xyz": [1.982399, 2.654348, -1.922212], "properties": {}}, {"name": "F", "species": [{"element": "F", "occu": 1}], "xyz": [2.073454, 2.390708, 0.242005], "properties": {}}, {"name": "F", "species": [{"element": "F", "occu": 1}], "xyz": [5.239954, 0.032996, -1.178953], "properties": {}}, {"name": "F", "species": [{"element": "F", "occu": 1}], "xyz": [4.73208, 2.022595, -1.912698], "properties": {}}, {"name": "F", "species": [{"element": "F", "occu": 1}], "xyz": [4.690275, 1.606205, 0.229686], "properties": {}}, {"name": "O", "species": [{"element": "O", "occu": 1}], "xyz": [2.749983, 0.020689, -2.341059], "properties": {}}, {"name": "C", "species": [{"element": "C", "occu": 1}], "xyz": [2.95653, 0.617998, -1.09803], "properties": {}}, {"name": "C", "species": [{"element": "C", "occu": 1}], "xyz": [2.657174, -1.419039, -2.337018], "properties": {}}, {"name": "C", "species": [{"element": "C", "occu": 1}], "xyz": [1.919924, 1.74524, -0.93578], "properties": {}}, {"name": "C", "species": [{"element": "C", "occu": 1}], "xyz": [4.419353, 1.09584, -0.991614], "properties": {}}, {"name": "C", "species": [{"element": "C", "occu": 1}], "xyz": [2.530175, -1.880055, -3.780579], "properties": {}}, {"name": "C", "species": [{"element": "C", "occu": 1}], "xyz": [3.763915, -1.548716, -4.628059], "properties": {}}, {"name": "H", "species": [{"element": "H", "occu": 1}], "xyz": [2.792897, -0.069911, -0.258014], "properties": {}}, {"name": "H", "species": [{"element": "H", "occu": 1}], "xyz": [3.559668, -1.839202, -1.871495], "properties": {}}, {"name": "H", "species": [{"element": "H", "occu": 1}], "xyz": [1.778269, -1.715193, -1.746042], "properties": {}}, {"name": "H", "species": [{"element": "H", "occu": 1}], "xyz": [2.357458, -2.964934, -3.765672], "properties": {}}, {"name": "H", "species": [{"element": "H", "occu": 1}], "xyz": [1.633619, -1.420114, -4.215553], "properties": {}}, {"name": "H", "species": [{"element": "H", "occu": 1}], "xyz": [4.664338, -2.019778, -4.213347], "properties": {}}, {"name": "H", "species": [{"element": "H", "occu": 1}], "xyz": [3.638946, -1.907453, -5.655943], "properties": {}}, {"name": "H", "species": [{"element": "H", "occu": 1}], "xyz": [3.934675, -0.468072, -4.66148], "properties": {}}]}, "smiles": "FC(F)(F)C(OCCC)C(F)(F)F", "inchi": "InChI=1S/C6H8F6O/c1-2-3-13-4(5(7,8)9)6(10,11)12/h4H,2-3H2,1H3", "formula_alphabetical": "C6 F6 H8 O1", "chemsys": "C-F-H-O", "energy": -907.777788365, "esp": {"1": ["F", -0.188244], "2": ["F", -0.176858], "3": ["F", -0.203391], "4": ["F", -0.182419], "5": ["F", -0.161122], "6": ["F", -0.195683], "7": ["O", -0.283478], "8": ["C", -0.164777], "9": ["C", 0.001395], "10": ["C", 0.599701], "11": ["C", 0.557289], "12": ["C", 0.132482], "13": ["C", -0.214918], "14": ["H", 0.160104], "15": ["H", 0.074771], "16": ["H", 0.057509], "17": ["H", -0.009447], "18": ["H", 0.017346], "19": ["H", 0.060695], "20": ["H", 0.05293], "21": ["H", 0.066113]}, "dipole_moment": {"X": -0.4943, "Y": -3.2982, "Z": -0.081, "Tot": 3.3361}, "functional": "B3LYP", "basis": "6-31+G*", "phase": "gas", "tag": "lis", "state": "successful", "wall_time (s)": 11.979240583954379, "version": "0.0.1", "gauss_version": "ES64L-G16RevC.01", "last_updated": "2021-09-09 18:01:52.672000", "polarizability": 80.49, "fluorinated-solvent": "22005452", "run_ids": ["613a495449a0256c5367b6de", "613a4b4dd4aca6ea32062f78"]}