{"_id": "61412b56e887d48cea7383cb", "molecule": {"@module": "pymatgen.core.structure", "@class": "Molecule", "charge": 0, "spin_multiplicity": 1, "sites": [{"name": "F", "species": [{"element": "F", "occu": 1}], "xyz": [2.755093, -1.778149, 2.974005], "properties": {}}, {"name": "F", "species": [{"element": "F", "occu": 1}], "xyz": [1.130381, -1.642226, 1.517147], "properties": {}}, {"name": "F", "species": [{"element": "F", "occu": 1}], "xyz": [2.912118, -3.701311, 0.980589], "properties": {}}, {"name": "O", "species": [{"element": "O", "occu": 1}], "xyz": [2.847762, -0.180601, 1.379061], "properties": {}}, {"name": "C", "species": [{"element": "C", "occu": 1}], "xyz": [2.778814, 2.212086, 1.697337], "properties": {}}, {"name": "C", "species": [{"element": "C", "occu": 1}], "xyz": [2.2221, 0.870367, 2.16767], "properties": {}}, {"name": "C", "species": [{"element": "C", "occu": 1}], "xyz": [4.291361, 2.315728, 1.944434], "properties": {}}, {"name": "C", "species": [{"element": "C", "occu": 1}], "xyz": [2.423782, 2.489423, 0.228773], "properties": {}}, {"name": "C", "species": [{"element": "C", "occu": 1}], "xyz": [2.490212, -1.453025, 1.658958], "properties": {}}, {"name": "C", "species": [{"element": "C", "occu": 1}], "xyz": [3.252924, -2.381869, 0.721831], "properties": {}}, {"name": "H", "species": [{"element": "H", "occu": 1}], "xyz": [2.273617, 2.963705, 2.323298], "properties": {}}, {"name": "H", "species": [{"element": "H", "occu": 1}], "xyz": [1.138345, 0.815548, 2.018936], "properties": {}}, {"name": "H", "species": [{"element": "H", "occu": 1}], "xyz": [2.451187, 0.693628, 3.224035], "properties": {}}, {"name": "H", "species": [{"element": "H", "occu": 1}], "xyz": [4.83356, 1.577415, 1.343129], "properties": {}}, {"name": "H", "species": [{"element": "H", "occu": 1}], "xyz": [4.660324, 3.311401, 1.672129], "properties": {}}, {"name": "H", "species": [{"element": "H", "occu": 1}], "xyz": [4.537915, 2.139607, 2.998863], "properties": {}}, {"name": "H", "species": [{"element": "H", "occu": 1}], "xyz": [1.340715, 2.436963, 0.061834], "properties": {}}, {"name": "H", "species": [{"element": "H", "occu": 1}], "xyz": [2.764403, 3.487742, -0.069533], "properties": {}}, {"name": "H", "species": [{"element": "H", "occu": 1}], "xyz": [2.902845, 1.757007, -0.430564], "properties": {}}, {"name": "H", "species": [{"element": "H", "occu": 1}], "xyz": [2.987247, -2.142224, -0.311297], "properties": {}}, {"name": "H", "species": [{"element": "H", "occu": 1}], "xyz": [4.325864, -2.252815, 0.887704], "properties": {}}]}, "smiles": "FC(F)(OCC(C)C)CF", "inchi": "InChI=1S/C6H11F3O/c1-5(2)3-10-6(8,9)4-7/h5H,3-4H2,1-2H3", "formula_alphabetical": "C6 F3 H11 O1", "chemsys": "C-F-H-O", "energy": -610.045807607, "esp": {"1": ["F", -0.243253], "2": ["F", -0.244448], "3": ["F", -0.220011], "4": ["O", -0.433473], "5": ["C", 0.436198], "6": ["C", -0.126405], "7": ["C", -0.368878], "8": ["C", -0.382862], "9": ["C", 0.681922], "10": ["C", -0.067541], "11": ["H", -0.052016], "12": ["H", 0.106217], "13": ["H", 0.106571], "14": ["H", 0.096461], "15": ["H", 0.084486], "16": ["H", 0.086149], "17": ["H", 0.090019], "18": ["H", 0.089839], "19": ["H", 0.097411], "20": ["H", 0.132383], "21": ["H", 0.13123]}, "dipole_moment": {"X": 1.006, "Y": 3.2801, "Z": -0.8213, "Tot": 3.5278}, "functional": "B3LYP", "basis": "6-31+G*", "phase": "gas", "tag": "lis", "state": "successful", "wall_time (s)": 8.907991456100717, "version": "0.0.1", "gauss_version": "ES64L-G16RevC.01", "last_updated": "2021-09-14 23:08:06.623000", "polarizability": 77.83, "fluorinated-solvent": "139683212", "run_ids": ["61412b3bd570f4594609b3e7", "61412b508a1fbb60b375362c"]}