{"_id": "614124555286a04b1a1a0bce", "molecule": {"@module": "pymatgen.core.structure", "@class": "Molecule", "charge": 0, "spin_multiplicity": 1, "sites": [{"name": "F", "species": [{"element": "F", "occu": 1}], "xyz": [0.517908, -3.315707, -3.158975], "properties": {}}, {"name": "F", "species": [{"element": "F", "occu": 1}], "xyz": [2.460328, -4.306963, -3.148968], "properties": {}}, {"name": "F", "species": [{"element": "F", "occu": 1}], "xyz": [1.927395, -2.971289, -4.795517], "properties": {}}, {"name": "F", "species": [{"element": "F", "occu": 1}], "xyz": [6.772359, -1.341078, 1.338422], "properties": {}}, {"name": "F", "species": [{"element": "F", "occu": 1}], "xyz": [5.327083, -0.006513, 2.294302], "properties": {}}, {"name": "F", "species": [{"element": "F", "occu": 1}], "xyz": [4.871719, -2.131609, 2.058418], "properties": {}}, {"name": "O", "species": [{"element": "O", "occu": 1}], "xyz": [2.211194, -1.940151, -1.342981], "properties": {}}, {"name": "O", "species": [{"element": "O", "occu": 1}], "xyz": [5.052225, -1.69142, -0.891376], "properties": {}}, {"name": "C", "species": [{"element": "C", "occu": 1}], "xyz": [2.902342, -2.906853, -0.543254], "properties": {}}, {"name": "C", "species": [{"element": "C", "occu": 1}], "xyz": [4.412261, -2.96786, -0.777616], "properties": {}}, {"name": "C", "species": [{"element": "C", "occu": 1}], "xyz": [2.432849, -1.943403, -2.731919], "properties": {}}, {"name": "C", "species": [{"element": "C", "occu": 1}], "xyz": [4.809936, -0.732881, 0.109011], "properties": {}}, {"name": "C", "species": [{"element": "C", "occu": 1}], "xyz": [1.822245, -3.142632, -3.454206], "properties": {}}, {"name": "C", "species": [{"element": "C", "occu": 1}], "xyz": [5.458073, -1.061691, 1.452291], "properties": {}}, {"name": "H", "species": [{"element": "H", "occu": 1}], "xyz": [2.674559, -2.609423, 0.483405], "properties": {}}, {"name": "H", "species": [{"element": "H", "occu": 1}], "xyz": [2.492315, -3.914344, -0.695429], "properties": {}}, {"name": "H", "species": [{"element": "H", "occu": 1}], "xyz": [4.85899, -3.565866, 0.028097], "properties": {}}, {"name": "H", "species": [{"element": "H", "occu": 1}], "xyz": [4.644432, -3.463109, -1.72376], "properties": {}}, {"name": "H", "species": [{"element": "H", "occu": 1}], "xyz": [3.49653, -1.897192, -2.996089], "properties": {}}, {"name": "H", "species": [{"element": "H", "occu": 1}], "xyz": [1.936199, -1.051671, -3.122644], "properties": {}}, {"name": "H", "species": [{"element": "H", "occu": 1}], "xyz": [5.263774, 0.197127, -0.242606], "properties": {}}, {"name": "H", "species": [{"element": "H", "occu": 1}], "xyz": [3.74143, -0.557632, 0.284925], "properties": {}}]}, "smiles": "FC(F)(F)COCCOCC(F)(F)F", "inchi": "InChI=1S/C6H8F6O2/c7-5(8,9)3-13-1-2-14-4-6(10,11)12/h1-4H2", "formula_alphabetical": "C6 F6 H8 O2", "chemsys": "C-F-H-O", "energy": -982.986186148, "esp": {"1": ["F", -0.182392], "2": ["F", -0.190833], "3": ["F", -0.221321], "4": ["F", -0.180306], "5": ["F", -0.221223], "6": ["F", -0.184877], "7": ["O", -0.346843], "8": ["O", -0.357078], "9": ["C", 0.011065], "10": ["C", -0.040745], "11": ["C", -0.057211], "12": ["C", 0.034102], "13": ["C", 0.553822], "14": ["C", 0.525505], "15": ["H", 0.101528], "16": ["H", 0.088502], "17": ["H", 0.093328], "18": ["H", 0.119616], "19": ["H", 0.113521], "20": ["H", 0.1357], "21": ["H", 0.113027], "22": ["H", 0.093114]}, "dipole_moment": {"X": -0.0167, "Y": 0.6175, "Z": -0.2497, "Tot": 0.6663}, "functional": "B3LYP", "basis": "6-31+G*", "phase": "gas", "tag": "lis", "state": "successful", "wall_time (s)": 12.832825363031588, "version": "0.0.1", "gauss_version": "ES64L-G16RevC.01", "last_updated": "2021-09-14 22:38:13.076000", "polarizability": 83.58, "fluorinated-solvent": "86011935", "run_ids": ["6141242e9de7810627fdbb2a", "6141244d5413d853ea3e37bb"]}