{"_id": "613a4d1c557a6c7a62f9999c", "molecule": {"@module": "pymatgen.core.structure", "@class": "Molecule", "charge": 0, "spin_multiplicity": 1, "sites": [{"name": "F", "species": [{"element": "F", "occu": 1}], "xyz": [3.678723, 0.199733, -2.777083], "properties": {}}, {"name": "F", "species": [{"element": "F", "occu": 1}], "xyz": [1.581522, 0.81029, -2.908537], "properties": {}}, {"name": "F", "species": [{"element": "F", "occu": 1}], "xyz": [4.033605, 1.869536, -0.570058], "properties": {}}, {"name": "F", "species": [{"element": "F", "occu": 1}], "xyz": [3.249193, 2.887477, -2.367774], "properties": {}}, {"name": "O", "species": [{"element": "O", "occu": 1}], "xyz": [2.302561, -0.234217, -1.038522], "properties": {}}, {"name": "C", "species": [{"element": "C", "occu": 1}], "xyz": [1.94487, -1.610966, -1.42661], "properties": {}}, {"name": "C", "species": [{"element": "C", "occu": 1}], "xyz": [2.765593, -2.543464, -0.540269], "properties": {}}, {"name": "C", "species": [{"element": "C", "occu": 1}], "xyz": [0.439635, -1.767016, -1.258665], "properties": {}}, {"name": "C", "species": [{"element": "C", "occu": 1}], "xyz": [2.620898, 0.627438, -2.013161], "properties": {}}, {"name": "C", "species": [{"element": "C", "occu": 1}], "xyz": [4.277996, -2.41766, -0.748336], "properties": {}}, {"name": "C", "species": [{"element": "C", "occu": 1}], "xyz": [2.946719, 1.995928, -1.383873], "properties": {}}, {"name": "H", "species": [{"element": "H", "occu": 1}], "xyz": [2.230433, -1.745891, -2.475357], "properties": {}}, {"name": "H", "species": [{"element": "H", "occu": 1}], "xyz": [2.506612, -2.33763, 0.50717], "properties": {}}, {"name": "H", "species": [{"element": "H", "occu": 1}], "xyz": [2.437965, -3.570491, -0.75162], "properties": {}}, {"name": "H", "species": [{"element": "H", "occu": 1}], "xyz": [-0.097351, -1.057943, -1.895322], "properties": {}}, {"name": "H", "species": [{"element": "H", "occu": 1}], "xyz": [0.135755, -2.783476, -1.534638], "properties": {}}, {"name": "H", "species": [{"element": "H", "occu": 1}], "xyz": [0.152538, -1.590455, -0.215912], "properties": {}}, {"name": "H", "species": [{"element": "H", "occu": 1}], "xyz": [4.621604, -1.404134, -0.51914], "properties": {}}, {"name": "H", "species": [{"element": "H", "occu": 1}], "xyz": [4.817834, -3.11633, -0.099361], "properties": {}}, {"name": "H", "species": [{"element": "H", "occu": 1}], "xyz": [4.554462, -2.637935, -1.786809], "properties": {}}, {"name": "H", "species": [{"element": "H", "occu": 1}], "xyz": [2.101634, 2.372207, -0.801209], "properties": {}}]}, "smiles": "FC(F)(O[C@@H](CC)C)C(F)F", "inchi": "InChI=1S/C6H10F4O/c1-3-4(2)11-6(9,10)5(7)8/h4-5H,3H2,1-2H3/t4-/m1/s1", "formula_alphabetical": "C6 F4 H10 O1", "chemsys": "C-F-H-O", "energy": -709.293809242, "esp": {"1": ["F", -0.205137], "2": ["F", -0.249565], "3": ["F", -0.202099], "4": ["F", -0.210944], "5": ["O", -0.468888], "6": ["C", 0.486119], "7": ["C", -0.047807], "8": ["C", -0.578088], "9": ["C", 0.519458], "10": ["C", -0.2114], "11": ["C", 0.321414], "12": ["H", 0.027182], "13": ["H", 0.049648], "14": ["H", 0.024067], "15": ["H", 0.173671], "16": ["H", 0.131389], "17": ["H", 0.149192], "18": ["H", 0.070314], "19": ["H", 0.066024], "20": ["H", 0.049565], "21": ["H", 0.105887]}, "dipole_moment": {"X": -1.9568, "Y": -2.3947, "Z": 1.348, "Tot": 3.3736}, "functional": "B3LYP", "basis": "6-31+G*", "phase": "gas", "tag": "lis", "state": "successful", "wall_time (s)": 10.162417937070131, "version": "0.0.1", "gauss_version": "ES64L-G16RevC.01", "last_updated": "2021-09-09 18:06:20.364000", "polarizability": 78.83, "fluorinated-solvent": "23200873", "run_ids": ["613a49dd10f0a500ece566c3", "613a4b8adfb56095100677f9"]}