{"_id": "613a4eb32ba91c0ee7dafdfd", "molecule": {"@module": "pymatgen.core.structure", "@class": "Molecule", "charge": 0, "spin_multiplicity": 1, "sites": [{"name": "F", "species": [{"element": "F", "occu": 1}], "xyz": [1.239, 0.154387, 0.625939], "properties": {}}, {"name": "F", "species": [{"element": "F", "occu": 1}], "xyz": [3.236109, -0.498776, 1.206579], "properties": {}}, {"name": "F", "species": [{"element": "F", "occu": 1}], "xyz": [0.727628, -2.133659, -1.248564], "properties": {}}, {"name": "F", "species": [{"element": "F", "occu": 1}], "xyz": [2.349925, 1.904677, -1.236472], "properties": {}}, {"name": "F", "species": [{"element": "F", "occu": 1}], "xyz": [3.053871, 2.206288, 0.807784], "properties": {}}, {"name": "F", "species": [{"element": "F", "occu": 1}], "xyz": [4.350914, 1.243412, -0.660998], "properties": {}}, {"name": "F", "species": [{"element": "F", "occu": 1}], "xyz": [2.339366, -4.324222, -1.525032], "properties": {}}, {"name": "F", "species": [{"element": "F", "occu": 1}], "xyz": [2.92215, -2.717055, -2.884175], "properties": {}}, {"name": "F", "species": [{"element": "F", "occu": 1}], "xyz": [4.114643, -3.124085, -1.097876], "properties": {}}, {"name": "O", "species": [{"element": "O", "occu": 1}], "xyz": [2.557576, -0.837892, -0.913812], "properties": {}}, {"name": "C", "species": [{"element": "C", "occu": 1}], "xyz": [2.5062, -0.006286, 0.168058], "properties": {}}, {"name": "C", "species": [{"element": "C", "occu": 1}], "xyz": [2.005806, -2.11834, -0.760518], "properties": {}}, {"name": "C", "species": [{"element": "C", "occu": 1}], "xyz": [3.083207, 1.37768, -0.246569], "properties": {}}, {"name": "C", "species": [{"element": "C", "occu": 1}], "xyz": [2.863765, -3.086044, -1.597576], "properties": {}}, {"name": "H", "species": [{"element": "H", "occu": 1}], "xyz": [1.99234, -2.441962, 0.283653], "properties": {}}]}, "smiles": "FC(F)(O[C@@H](F)C(F)(F)F)C(F)(F)F", "inchi": "InChI=1S/C4HF9O/c5-1(2(6,7)8)14-4(12,13)3(9,10)11/h1H/t1-/m1/s1", "formula_alphabetical": "C4 F9 H1 O1", "chemsys": "C-F-H-O", "energy": -1126.88251961, "esp": {"1": ["F", -0.121004], "2": ["F", -0.147552], "3": ["F", -0.154122], "4": ["F", -0.136489], "5": ["F", -0.143371], "6": ["F", -0.142529], "7": ["F", -0.162938], "8": ["F", -0.122571], "9": ["F", -0.158784], "10": ["O", -0.233612], "11": ["C", 0.291534], "12": ["C", 0.123328], "13": ["C", 0.470573], "14": ["C", 0.453462], "15": ["H", 0.184076]}, "dipole_moment": {"X": -0.0248, "Y": -0.498, "Z": 1.1467, "Tot": 1.2504}, "functional": "B3LYP", "basis": "6-31+G*", "phase": "gas", "tag": "lis", "state": "successful", "wall_time (s)": 9.922444402007386, "version": "0.0.1", "gauss_version": "ES64L-G16RevC.01", "last_updated": "2021-09-09 18:13:07.572000", "polarizability": 60.2, "fluorinated-solvent": "15952514", "run_ids": ["613a4a43e570a8bd94e99a52", "613a4ea7d8335fa70fbc34b1"]}