{"_id": "613a551e1b828c05467728e5", "molecule": {"@module": "pymatgen.core.structure", "@class": "Molecule", "charge": 0, "spin_multiplicity": 1, "sites": [{"name": "F", "species": [{"element": "F", "occu": 1}], "xyz": [1.201965, 0.444743, 0.474253], "properties": {}}, {"name": "F", "species": [{"element": "F", "occu": 1}], "xyz": [3.259778, 0.385874, 1.204619], "properties": {}}, {"name": "F", "species": [{"element": "F", "occu": 1}], "xyz": [0.772942, -2.450769, 0.514125], "properties": {}}, {"name": "F", "species": [{"element": "F", "occu": 1}], "xyz": [2.82135, 2.232759, -0.790647], "properties": {}}, {"name": "F", "species": [{"element": "F", "occu": 1}], "xyz": [4.190891, 0.61535, -1.417217], "properties": {}}, {"name": "O", "species": [{"element": "O", "occu": 1}], "xyz": [2.56057, -1.23725, -0.194542], "properties": {}}, {"name": "C", "species": [{"element": "C", "occu": 1}], "xyz": [2.473521, 0.081404, 0.127221], "properties": {}}, {"name": "C", "species": [{"element": "C", "occu": 1}], "xyz": [2.112566, -2.183311, 0.771358], "properties": {}}, {"name": "C", "species": [{"element": "C", "occu": 1}], "xyz": [2.899696, 0.910322, -1.100666], "properties": {}}, {"name": "C", "species": [{"element": "C", "occu": 1}], "xyz": [2.92267, -3.443964, 0.608059], "properties": {}}, {"name": "H", "species": [{"element": "H", "occu": 1}], "xyz": [2.163014, -1.74795, 1.772809], "properties": {}}, {"name": "H", "species": [{"element": "H", "occu": 1}], "xyz": [2.256386, 0.697776, -1.958876], "properties": {}}, {"name": "H", "species": [{"element": "H", "occu": 1}], "xyz": [3.973435, -3.24302, 0.83696], "properties": {}}, {"name": "H", "species": [{"element": "H", "occu": 1}], "xyz": [2.543482, -4.212783, 1.287167], "properties": {}}, {"name": "H", "species": [{"element": "H", "occu": 1}], "xyz": [2.840743, -3.800812, -0.422952], "properties": {}}]}, "smiles": "FC(F)(O[C@@H](F)C)C(F)F", "inchi": "InChI=1S/C4H5F5O/c1-2(5)10-4(8,9)3(6)7/h2-3H,1H3/t2-/m1/s1", "formula_alphabetical": "C4 F5 H5 O1", "chemsys": "C-F-H-O", "energy": -729.908644062, "esp": {"1": ["F", -0.212597], "2": ["F", -0.189127], "3": ["F", -0.282361], "4": ["F", -0.200676], "5": ["F", -0.198217], "6": ["O", -0.423261], "7": ["C", 0.48652], "8": ["C", 0.58688], "9": ["C", 0.309324], "10": ["C", -0.565746], "11": ["H", 0.052443], "12": ["H", 0.120256], "13": ["H", 0.164966], "14": ["H", 0.159502], "15": ["H", 0.192094]}, "dipole_moment": {"X": 0.5099, "Y": -2.2781, "Z": -0.0268, "Tot": 2.3346}, "functional": "B3LYP", "basis": "6-31+G*", "phase": "gas", "tag": "lis", "state": "successful", "wall_time (s)": 7.659148377017118, "version": "0.0.1", "gauss_version": "ES64L-G16RevC.01", "last_updated": "2021-09-09 18:40:29.945000", "polarizability": 56.74, "fluorinated-solvent": "11147905", "run_ids": ["613a4adcbaed9d3d2ee5250c", "613a551105c1bd8c1e182915"]}