{"_id": "613a57c5fd83978354c8c363", "molecule": {"@module": "pymatgen.core.structure", "@class": "Molecule", "charge": 0, "spin_multiplicity": 1, "sites": [{"name": "F", "species": [{"element": "F", "occu": 1}], "xyz": [2.14698, -0.371195, -0.305355], "properties": {}}, {"name": "F", "species": [{"element": "F", "occu": 1}], "xyz": [3.473207, -1.17531, 1.23365], "properties": {}}, {"name": "F", "species": [{"element": "F", "occu": 1}], "xyz": [4.132736, 0.479599, -0.036917], "properties": {}}, {"name": "F", "species": [{"element": "F", "occu": 1}], "xyz": [0.331439, 0.025201, 1.81307], "properties": {}}, {"name": "F", "species": [{"element": "F", "occu": 1}], "xyz": [1.748464, 4.648893, 2.286933], "properties": {}}, {"name": "F", "species": [{"element": "F", "occu": 1}], "xyz": [3.356099, 3.474622, 3.174452], "properties": {}}, {"name": "F", "species": [{"element": "F", "occu": 1}], "xyz": [3.829546, 5.147991, 1.842658], "properties": {}}, {"name": "O", "species": [{"element": "O", "occu": 1}], "xyz": [2.06265, 2.125107, 1.00126], "properties": {}}, {"name": "C", "species": [{"element": "C", "occu": 1}], "xyz": [2.543168, 0.966328, 1.661151], "properties": {}}, {"name": "C", "species": [{"element": "C", "occu": 1}], "xyz": [3.056794, -0.03927, 0.618928], "properties": {}}, {"name": "C", "species": [{"element": "C", "occu": 1}], "xyz": [1.445959, 0.405751, 2.556155], "properties": {}}, {"name": "C", "species": [{"element": "C", "occu": 1}], "xyz": [2.967869, 3.196852, 0.831812], "properties": {}}, {"name": "C", "species": [{"element": "C", "occu": 1}], "xyz": [2.965343, 4.125476, 2.042955], "properties": {}}, {"name": "H", "species": [{"element": "H", "occu": 1}], "xyz": [3.39936, 1.190399, 2.310592], "properties": {}}, {"name": "H", "species": [{"element": "H", "occu": 1}], "xyz": [1.808689, -0.472567, 3.099713], "properties": {}}, {"name": "H", "species": [{"element": "H", "occu": 1}], "xyz": [1.13706, 1.187076, 3.257113], "properties": {}}, {"name": "H", "species": [{"element": "H", "occu": 1}], "xyz": [3.99593, 2.863229, 0.654349], "properties": {}}, {"name": "H", "species": [{"element": "H", "occu": 1}], "xyz": [2.626916, 3.774197, -0.03094], "properties": {}}]}, "smiles": "FC(F)(F)[C@@H](OCC(F)(F)F)CF", "inchi": "InChI=1S/C5H5F7O/c6-1-3(5(10,11)12)13-2-4(7,8)9/h3H,1-2H2/t3-/m0/s1", "formula_alphabetical": "C5 F7 H5 O1", "chemsys": "C-F-H-O", "energy": -967.702584266, "esp": {"1": ["F", -0.179197], "2": ["F", -0.220318], "3": ["F", -0.221283], "4": ["F", -0.239594], "5": ["F", -0.188531], "6": ["F", -0.202644], "7": ["F", -0.223243], "8": ["O", -0.258391], "9": ["C", -0.08869], "10": ["C", 0.644982], "11": ["C", 0.131771], "12": ["C", -0.135283], "13": ["C", 0.60573], "14": ["H", 0.11376], "15": ["H", 0.077442], "16": ["H", 0.097765], "17": ["H", 0.130691], "18": ["H", 0.155032]}, "dipole_moment": {"X": 1.7237, "Y": 0.5763, "Z": 1.0792, "Tot": 2.1138}, "functional": "B3LYP", "basis": "6-31+G*", "phase": "gas", "tag": "lis", "state": "successful", "wall_time (s)": 10.563614562997827, "version": "0.0.1", "gauss_version": "ES64L-G16RevC.01", "last_updated": "2021-09-09 18:51:49.512000", "polarizability": 68.88, "fluorinated-solvent": "23399427", "run_ids": ["613a4b0666175e86abdd0652", "613a57c14bc419a2a8ac2066"]}