{"_id": "614128b8aacbde8a17f2db7c", "molecule": {"@module": "pymatgen.core.structure", "@class": "Molecule", "charge": 0, "spin_multiplicity": 1, "sites": [{"name": "F", "species": [{"element": "F", "occu": 1}], "xyz": [0.416708, -0.087719, -0.113051], "properties": {}}, {"name": "F", "species": [{"element": "F", "occu": 1}], "xyz": [0.307007, -2.254245, 0.103763], "properties": {}}, {"name": "F", "species": [{"element": "F", "occu": 1}], "xyz": [-1.255826, -1.187985, -0.993331], "properties": {}}, {"name": "F", "species": [{"element": "F", "occu": 1}], "xyz": [6.862244, -2.745975, -3.431584], "properties": {}}, {"name": "F", "species": [{"element": "F", "occu": 1}], "xyz": [8.434679, -3.873333, -2.34578], "properties": {}}, {"name": "O", "species": [{"element": "O", "occu": 1}], "xyz": [2.226297, -1.328176, -1.933663], "properties": {}}, {"name": "O", "species": [{"element": "O", "occu": 1}], "xyz": [5.012927, -3.497774, -1.261094], "properties": {}}, {"name": "C", "species": [{"element": "C", "occu": 1}], "xyz": [2.873879, -2.531609, -1.511856], "properties": {}}, {"name": "C", "species": [{"element": "C", "occu": 1}], "xyz": [4.36574, -2.301528, -1.697538], "properties": {}}, {"name": "C", "species": [{"element": "C", "occu": 1}], "xyz": [0.832751, -1.391753, -2.074409], "properties": {}}, {"name": "C", "species": [{"element": "C", "occu": 1}], "xyz": [6.42237, -3.442917, -1.191679], "properties": {}}, {"name": "C", "species": [{"element": "C", "occu": 1}], "xyz": [0.08038, -1.225966, -0.754165], "properties": {}}, {"name": "C", "species": [{"element": "C", "occu": 1}], "xyz": [7.074155, -3.766475, -2.52819], "properties": {}}, {"name": "H", "species": [{"element": "H", "occu": 1}], "xyz": [2.653629, -2.756923, -0.462183], "properties": {}}, {"name": "H", "species": [{"element": "H", "occu": 1}], "xyz": [2.542585, -3.380745, -2.128301], "properties": {}}, {"name": "H", "species": [{"element": "H", "occu": 1}], "xyz": [4.589558, -2.082955, -2.748238], "properties": {}}, {"name": "H", "species": [{"element": "H", "occu": 1}], "xyz": [4.690548, -1.445522, -1.0877], "properties": {}}, {"name": "H", "species": [{"element": "H", "occu": 1}], "xyz": [0.497341, -2.335829, -2.528504], "properties": {}}, {"name": "H", "species": [{"element": "H", "occu": 1}], "xyz": [0.531798, -0.559908, -2.717441], "properties": {}}, {"name": "H", "species": [{"element": "H", "occu": 1}], "xyz": [6.784479, -2.461445, -0.851279], "properties": {}}, {"name": "H", "species": [{"element": "H", "occu": 1}], "xyz": [6.738044, -4.204877, -0.471815], "properties": {}}, {"name": "H", "species": [{"element": "H", "occu": 1}], "xyz": [6.709197, -4.691931, -2.983465], "properties": {}}]}, "smiles": "FC(F)(F)COCCOCC(F)F", "inchi": "InChI=1S/C6H9F5O2/c7-5(8)3-12-1-2-13-4-6(9,10)11/h5H,1-4H2", "formula_alphabetical": "C6 F5 H9 O2", "chemsys": "C-F-H-O", "energy": -883.736791991, "esp": {"1": ["F", -0.191257], "2": ["F", -0.208157], "3": ["F", -0.244045], "4": ["F", -0.235297], "5": ["F", -0.270068], "6": ["O", -0.461486], "7": ["O", -0.528654], "8": ["C", 0.267686], "9": ["C", 0.290676], "10": ["C", -0.038701], "11": ["C", 0.09022], "12": ["C", 0.608938], "13": ["C", 0.378978], "14": ["H", 0.020494], "15": ["H", 0.01441], "16": ["H", 0.005874], "17": ["H", 0.014112], "18": ["H", 0.092878], "19": ["H", 0.134521], "20": ["H", 0.076976], "21": ["H", 0.089119], "22": ["H", 0.092782]}, "dipole_moment": {"X": -0.2276, "Y": -1.3127, "Z": -0.7526, "Tot": 1.5301}, "functional": "B3LYP", "basis": "6-31+G*", "phase": "gas", "tag": "lis", "state": "successful", "wall_time (s)": 10.745671903947368, "version": "0.0.1", "gauss_version": "ES64L-G16RevC.01", "last_updated": "2021-09-14 22:56:56.617000", "polarizability": 84.67, "fluorinated-solvent": "101495585", "run_ids": ["6141289d573da4dc54ddfa81", "614128aeb3d28d5590d55d9c"]}