{"_id": "613a54e7380aa6edf36bdf0a", "molecule": {"@module": "pymatgen.core.structure", "@class": "Molecule", "charge": 0, "spin_multiplicity": 1, "sites": [{"name": "F", "species": [{"element": "F", "occu": 1}], "xyz": [0.931237, 0.124578, -0.397178], "properties": {}}, {"name": "F", "species": [{"element": "F", "occu": 1}], "xyz": [2.786831, 1.254344, -0.608865], "properties": {}}, {"name": "F", "species": [{"element": "F", "occu": 1}], "xyz": [1.931475, 1.772317, 1.929817], "properties": {}}, {"name": "F", "species": [{"element": "F", "occu": 1}], "xyz": [4.205209, -1.108895, -0.939362], "properties": {}}, {"name": "F", "species": [{"element": "F", "occu": 1}], "xyz": [2.326498, -2.248945, -0.750743], "properties": {}}, {"name": "F", "species": [{"element": "F", "occu": 1}], "xyz": [0.626807, 0.393349, 3.976982], "properties": {}}, {"name": "F", "species": [{"element": "F", "occu": 1}], "xyz": [-0.292665, 0.287817, 1.980936], "properties": {}}, {"name": "F", "species": [{"element": "F", "occu": 1}], "xyz": [3.156184, -1.943269, -3.302336], "properties": {}}, {"name": "F", "species": [{"element": "F", "occu": 1}], "xyz": [1.294209, -0.872832, -2.923257], "properties": {}}, {"name": "F", "species": [{"element": "F", "occu": 1}], "xyz": [3.168989, 0.229119, -3.118756], "properties": {}}, {"name": "F", "species": [{"element": "F", "occu": 1}], "xyz": [-0.34119, -2.042395, 3.568437], "properties": {}}, {"name": "F", "species": [{"element": "F", "occu": 1}], "xyz": [0.633143, -2.239477, 1.630879], "properties": {}}, {"name": "F", "species": [{"element": "F", "occu": 1}], "xyz": [1.840638, -2.101056, 3.449545], "properties": {}}, {"name": "O", "species": [{"element": "O", "occu": 1}], "xyz": [2.625127, -0.246403, 1.063746], "properties": {}}, {"name": "C", "species": [{"element": "C", "occu": 1}], "xyz": [2.272899, 0.060386, -0.224094], "properties": {}}, {"name": "C", "species": [{"element": "C", "occu": 1}], "xyz": [2.110073, 0.441892, 2.179369], "properties": {}}, {"name": "C", "species": [{"element": "C", "occu": 1}], "xyz": [2.864674, -1.066341, -1.129368], "properties": {}}, {"name": "C", "species": [{"element": "C", "occu": 1}], "xyz": [0.762768, -0.117203, 2.718388], "properties": {}}, {"name": "C", "species": [{"element": "C", "occu": 1}], "xyz": [2.609136, -0.899491, -2.659749], "properties": {}}, {"name": "C", "species": [{"element": "C", "occu": 1}], "xyz": [0.717054, -1.667018, 2.838594], "properties": {}}, {"name": "H", "species": [{"element": "H", "occu": 1}], "xyz": [2.864374, 0.317002, 2.958393], "properties": {}}]}, "smiles": "FC(F)(O[C@@H](F)C(F)(F)C(F)(F)F)C(F)(F)C(F)(F)F", "inchi": "InChI=1S/C6HF13O/c7-1(2(8,9)4(12,13)14)20-6(18,19)3(10,11)5(15,16)17/h1H/t1-/m1/s1", "formula_alphabetical": "C6 F13 H1 O1", "chemsys": "C-F-H-O", "energy": -1602.46050242, "esp": {"1": ["F", -0.166116], "2": ["F", -0.160987], "3": ["F", -0.170041], "4": ["F", -0.109433], "5": ["F", -0.093899], "6": ["F", -0.12892], "7": ["F", -0.072955], "8": ["F", -0.136828], "9": ["F", -0.146811], "10": ["F", -0.144929], "11": ["F", -0.152249], "12": ["F", -0.162361], "13": ["F", -0.179859], "14": ["O", -0.330888], "15": ["C", 0.506299], "16": ["C", 0.369012], "17": ["C", 0.081567], "18": ["C", 0.027999], "19": ["C", 0.484752], "20": ["C", 0.566687], "21": ["H", 0.11996]}, "dipole_moment": {"X": 0.9493, "Y": -0.0413, "Z": 1.2006, "Tot": 1.5311}, "functional": "B3LYP", "basis": "6-31+G*", "phase": "gas", "tag": "lis", "state": "successful", "wall_time (s)": 23.330386913963594, "version": "0.0.1", "gauss_version": "ES64L-G16RevC.01", "last_updated": "2021-09-09 18:39:34.780000", "polarizability": 85.83, "fluorinated-solvent": "20603195", "run_ids": ["613a4ad710fdc9bb9fb03ce5", "613a54df2a4a938460470fe5"]}