{"_id": "613a4ea7e8bd2ad5441e17c1", "molecule": {"@module": "pymatgen.core.structure", "@class": "Molecule", "charge": 0, "spin_multiplicity": 1, "sites": [{"name": "F", "species": [{"element": "F", "occu": 1}], "xyz": [2.040939, 3.346241, 0.973281], "properties": {}}, {"name": "F", "species": [{"element": "F", "occu": 1}], "xyz": [1.101861, 1.377181, 1.149333], "properties": {}}, {"name": "F", "species": [{"element": "F", "occu": 1}], "xyz": [4.346814, 2.418658, 2.189714], "properties": {}}, {"name": "F", "species": [{"element": "F", "occu": 1}], "xyz": [3.432164, 1.718215, 4.596915], "properties": {}}, {"name": "F", "species": [{"element": "F", "occu": 1}], "xyz": [2.096032, 3.214871, 3.747238], "properties": {}}, {"name": "F", "species": [{"element": "F", "occu": 1}], "xyz": [1.485513, 1.118391, 3.819273], "properties": {}}, {"name": "O", "species": [{"element": "O", "occu": 1}], "xyz": [2.98342, 1.586695, -0.073831], "properties": {}}, {"name": "C", "species": [{"element": "C", "occu": 1}], "xyz": [3.063484, 1.076507, -2.433261], "properties": {}}, {"name": "C", "species": [{"element": "C", "occu": 1}], "xyz": [2.399953, 1.935062, -1.366082], "properties": {}}, {"name": "C", "species": [{"element": "C", "occu": 1}], "xyz": [2.327985, 2.005636, 1.021044], "properties": {}}, {"name": "C", "species": [{"element": "C", "occu": 1}], "xyz": [3.187279, 1.673126, 2.255952], "properties": {}}, {"name": "C", "species": [{"element": "C", "occu": 1}], "xyz": [2.584853, -0.383735, -2.504499], "properties": {}}, {"name": "C", "species": [{"element": "C", "occu": 1}], "xyz": [2.528853, 1.95015, 3.619364], "properties": {}}, {"name": "C", "species": [{"element": "C", "occu": 1}], "xyz": [2.907475, -1.239903, -1.272215], "properties": {}}, {"name": "H", "species": [{"element": "H", "occu": 1}], "xyz": [2.863585, 1.562626, -3.398185], "properties": {}}, {"name": "H", "species": [{"element": "H", "occu": 1}], "xyz": [4.150928, 1.116381, -2.282844], "properties": {}}, {"name": "H", "species": [{"element": "H", "occu": 1}], "xyz": [1.318744, 1.761704, -1.324937], "properties": {}}, {"name": "H", "species": [{"element": "H", "occu": 1}], "xyz": [2.586, 3.000118, -1.533963], "properties": {}}, {"name": "H", "species": [{"element": "H", "occu": 1}], "xyz": [3.442072, 0.610217, 2.218208], "properties": {}}, {"name": "H", "species": [{"element": "H", "occu": 1}], "xyz": [1.499663, -0.39395, -2.683957], "properties": {}}, {"name": "H", "species": [{"element": "H", "occu": 1}], "xyz": [3.043449, -0.844025, -3.390206], "properties": {}}, {"name": "H", "species": [{"element": "H", "occu": 1}], "xyz": [2.369393, -0.890423, -0.385874], "properties": {}}, {"name": "H", "species": [{"element": "H", "occu": 1}], "xyz": [2.628266, -2.285931, -1.44603], "properties": {}}, {"name": "H", "species": [{"element": "H", "occu": 1}], "xyz": [3.980026, -1.2095, -1.042489], "properties": {}}]}, "smiles": "FC(F)(OCCCC)[C@@H](F)C(F)(F)F", "inchi": "InChI=1S/C7H10F6O/c1-2-3-4-14-7(12,13)5(8)6(9,10)11/h5H,2-4H2,1H3/t5-/m0/s1", "formula_alphabetical": "C7 F6 H10 O1", "chemsys": "C-F-H-O", "energy": -947.090447274, "esp": {"1": ["F", -0.201758], "2": ["F", -0.211332], "3": ["F", -0.176723], "4": ["F", -0.185934], "5": ["F", -0.161428], "6": ["F", -0.196633], "7": ["O", -0.31607], "8": ["C", -0.09169], "9": ["C", 0.090159], "10": ["C", 0.487658], "11": ["C", -0.035497], "12": ["C", 0.193854], "13": ["C", 0.556891], "14": ["C", -0.194458], "15": ["H", 0.019511], "16": ["H", 0.056115], "17": ["H", 0.066033], "18": ["H", 0.075168], "19": ["H", 0.157654], "20": ["H", -0.02743], "21": ["H", -0.030225], "22": ["H", 0.042168], "23": ["H", 0.041861], "24": ["H", 0.042108]}, "dipole_moment": {"X": 0.1779, "Y": -1.5496, "Z": -3.3778, "Tot": 3.7205}, "functional": "B3LYP", "basis": "6-31+G*", "phase": "gas", "tag": "lis", "state": "successful", "wall_time (s)": 13.799174775951542, "version": "0.0.1", "gauss_version": "ES64L-G16RevC.01", "last_updated": "2021-09-09 18:12:55.125000", "polarizability": 91.75, "fluorinated-solvent": "54096540", "run_ids": ["613a48d9334276a19169f624", "613a4ea24391ebd7c6cb960b"]}