{"_id": "614126a8bc93ae9c0b5002b3", "molecule": {"@module": "pymatgen.core.structure", "@class": "Molecule", "charge": 0, "spin_multiplicity": 1, "sites": [{"name": "F", "species": [{"element": "F", "occu": 1}], "xyz": [1.010508, -0.319394, 0.122664], "properties": {}}, {"name": "F", "species": [{"element": "F", "occu": 1}], "xyz": [2.575324, -0.166104, -1.400981], "properties": {}}, {"name": "F", "species": [{"element": "F", "occu": 1}], "xyz": [2.279744, 3.384852, 2.069845], "properties": {}}, {"name": "F", "species": [{"element": "F", "occu": 1}], "xyz": [3.605435, -2.493126, 2.608552], "properties": {}}, {"name": "O", "species": [{"element": "O", "occu": 1}], "xyz": [2.78173, 1.026625, 0.502715], "properties": {}}, {"name": "C", "species": [{"element": "C", "occu": 1}], "xyz": [2.381896, -0.156035, -0.027977], "properties": {}}, {"name": "C", "species": [{"element": "C", "occu": 1}], "xyz": [2.139433, 2.217805, 0.004176], "properties": {}}, {"name": "C", "species": [{"element": "C", "occu": 1}], "xyz": [3.119875, -1.315803, 0.606467], "properties": {}}, {"name": "C", "species": [{"element": "C", "occu": 1}], "xyz": [2.722443, 3.416942, 0.728351], "properties": {}}, {"name": "C", "species": [{"element": "C", "occu": 1}], "xyz": [2.910465, -1.375106, 2.115064], "properties": {}}, {"name": "C", "species": [{"element": "C", "occu": 1}], "xyz": [4.238662, 3.495751, 0.721342], "properties": {}}, {"name": "H", "species": [{"element": "H", "occu": 1}], "xyz": [2.32386, 2.310153, -1.072391], "properties": {}}, {"name": "H", "species": [{"element": "H", "occu": 1}], "xyz": [1.062809, 2.157219, 0.187983], "properties": {}}, {"name": "H", "species": [{"element": "H", "occu": 1}], "xyz": [2.759563, -2.237169, 0.140058], "properties": {}}, {"name": "H", "species": [{"element": "H", "occu": 1}], "xyz": [4.184378, -1.205341, 0.379626], "properties": {}}, {"name": "H", "species": [{"element": "H", "occu": 1}], "xyz": [2.278832, 4.317453, 0.283402], "properties": {}}, {"name": "H", "species": [{"element": "H", "occu": 1}], "xyz": [3.308825, -0.488696, 2.615903], "properties": {}}, {"name": "H", "species": [{"element": "H", "occu": 1}], "xyz": [1.854951, -1.502491, 2.373512], "properties": {}}, {"name": "H", "species": [{"element": "H", "occu": 1}], "xyz": [4.609661, 3.551933, -0.308914], "properties": {}}, {"name": "H", "species": [{"element": "H", "occu": 1}], "xyz": [4.567829, 4.388589, 1.261174], "properties": {}}, {"name": "H", "species": [{"element": "H", "occu": 1}], "xyz": [4.667637, 2.611413, 1.19964], "properties": {}}]}, "smiles": "FC(F)(OC[C@@H](F)C)CCF", "inchi": "InChI=1S/C6H10F4O/c1-5(8)4-11-6(9,10)2-3-7/h5H,2-4H2,1H3/t5-/m0/s1", "formula_alphabetical": "C6 F4 H10 O1", "chemsys": "C-F-H-O", "energy": -709.295057391, "esp": {"1": ["F", -0.211956], "2": ["F", -0.22336], "3": ["F", -0.317984], "4": ["F", -0.315404], "5": ["O", -0.22412], "6": ["C", 0.445219], "7": ["C", -0.266449], "8": ["C", -0.265802], "9": ["C", 0.481707], "10": ["C", 0.325558], "11": ["C", -0.417385], "12": ["H", 0.151277], "13": ["H", 0.157155], "14": ["H", 0.135124], "15": ["H", 0.12195], "16": ["H", 0.007126], "17": ["H", 0.025937], "18": ["H", 0.027379], "19": ["H", 0.107862], "20": ["H", 0.121656], "21": ["H", 0.134511]}, "dipole_moment": {"X": 0.5415, "Y": 2.3768, "Z": -1.8791, "Tot": 3.0778}, "functional": "B3LYP", "basis": "6-31+G*", "phase": "gas", "tag": "lis", "state": "successful", "wall_time (s)": 9.889287514030002, "version": "0.0.1", "gauss_version": "ES64L-G16RevC.01", "last_updated": "2021-09-14 22:48:07.734000", "polarizability": 77.8, "fluorinated-solvent": "89927897", "run_ids": ["6141269195826c38ae99da74", "614126a25820be58101e1a7b"]}