{"_id": "614122127e6db22a09857f53", "molecule": {"@module": "pymatgen.core.structure", "@class": "Molecule", "charge": 0, "spin_multiplicity": 1, "sites": [{"name": "F", "species": [{"element": "F", "occu": 1}], "xyz": [5.187023, 0.242527, 1.657573], "properties": {}}, {"name": "F", "species": [{"element": "F", "occu": 1}], "xyz": [3.903934, -1.050627, 2.865295], "properties": {}}, {"name": "F", "species": [{"element": "F", "occu": 1}], "xyz": [3.41087, -1.113746, -1.39558], "properties": {}}, {"name": "F", "species": [{"element": "F", "occu": 1}], "xyz": [5.476132, -0.520947, -1.030846], "properties": {}}, {"name": "F", "species": [{"element": "F", "occu": 1}], "xyz": [4.992568, -2.612773, -1.426757], "properties": {}}, {"name": "O", "species": [{"element": "O", "occu": 1}], "xyz": [2.994123, 0.085439, 1.138868], "properties": {}}, {"name": "C", "species": [{"element": "C", "occu": 1}], "xyz": [2.629392, 1.325137, 1.845867], "properties": {}}, {"name": "C", "species": [{"element": "C", "occu": 1}], "xyz": [3.008851, 2.513395, 0.956999], "properties": {}}, {"name": "C", "species": [{"element": "C", "occu": 1}], "xyz": [4.076217, -0.58051, 1.564015], "properties": {}}, {"name": "C", "species": [{"element": "C", "occu": 1}], "xyz": [4.385617, -1.785241, 0.68534], "properties": {}}, {"name": "C", "species": [{"element": "C", "occu": 1}], "xyz": [1.147925, 1.207303, 2.174928], "properties": {}}, {"name": "C", "species": [{"element": "C", "occu": 1}], "xyz": [2.323674, 2.531487, -0.414844], "properties": {}}, {"name": "C", "species": [{"element": "C", "occu": 1}], "xyz": [4.562055, -1.487932, -0.794216], "properties": {}}, {"name": "H", "species": [{"element": "H", "occu": 1}], "xyz": [3.211448, 1.365214, 2.771813], "properties": {}}, {"name": "H", "species": [{"element": "H", "occu": 1}], "xyz": [2.768971, 3.430273, 1.513772], "properties": {}}, {"name": "H", "species": [{"element": "H", "occu": 1}], "xyz": [4.096956, 2.498417, 0.825961], "properties": {}}, {"name": "H", "species": [{"element": "H", "occu": 1}], "xyz": [5.307614, -2.241975, 1.050942], "properties": {}}, {"name": "H", "species": [{"element": "H", "occu": 1}], "xyz": [3.570763, -2.505346, 0.785677], "properties": {}}, {"name": "H", "species": [{"element": "H", "occu": 1}], "xyz": [0.975633, 0.372765, 2.861761], "properties": {}}, {"name": "H", "species": [{"element": "H", "occu": 1}], "xyz": [0.794981, 2.13044, 2.649279], "properties": {}}, {"name": "H", "species": [{"element": "H", "occu": 1}], "xyz": [0.558975, 1.034458, 1.269016], "properties": {}}, {"name": "H", "species": [{"element": "H", "occu": 1}], "xyz": [1.237996, 2.655265, -0.329038], "properties": {}}, {"name": "H", "species": [{"element": "H", "occu": 1}], "xyz": [2.703712, 3.363671, -1.017943], "properties": {}}, {"name": "H", "species": [{"element": "H", "occu": 1}], "xyz": [2.518851, 1.601927, -0.95973], "properties": {}}]}, "smiles": "FC(F)(O[C@@H](CC)C)CC(F)(F)F", "inchi": "InChI=1S/C7H11F5O/c1-3-5(2)13-7(11,12)4-6(8,9)10/h5H,3-4H2,1-2H3/t5-/m1/s1", "formula_alphabetical": "C7 F5 H11 O1", "chemsys": "C-F-H-O", "energy": -847.871945658, "esp": {"1": ["F", -0.255235], "2": ["F", -0.25989], "3": ["F", -0.23013], "4": ["F", -0.221769], "5": ["F", -0.252827], "6": ["O", -0.409501], "7": ["C", 0.409207], "8": ["C", -0.015026], "9": ["C", 0.667538], "10": ["C", -0.535608], "11": ["C", -0.443396], "12": ["C", -0.125864], "13": ["C", 0.764487], "14": ["H", -0.002338], "15": ["H", 0.003194], "16": ["H", 0.028732], "17": ["H", 0.199159], "18": ["H", 0.198862], "19": ["H", 0.118206], "20": ["H", 0.116375], "21": ["H", 0.129437], "22": ["H", 0.033304], "23": ["H", 0.03912], "24": ["H", 0.043962]}, "dipole_moment": {"X": -1.468, "Y": 0.6645, "Z": 1.351, "Tot": 2.1028}, "functional": "B3LYP", "basis": "6-31+G*", "phase": "gas", "tag": "lis", "state": "successful", "wall_time (s)": 13.494069492910057, "version": "0.0.1", "gauss_version": "ES64L-G16RevC.01", "last_updated": "2021-09-14 22:28:33.846000", "polarizability": 90.14, "fluorinated-solvent": "88866017", "run_ids": ["614121f7d292bcb9a96ff181", "6141220c18dfe729207396f0"]}