{"_id": "613a4cdf24ee69c9c5f5c0d2", "molecule": {"@module": "pymatgen.core.structure", "@class": "Molecule", "charge": 0, "spin_multiplicity": 1, "sites": [{"name": "F", "species": [{"element": "F", "occu": 1}], "xyz": [1.26853, -0.566969, -0.540364], "properties": {}}, {"name": "F", "species": [{"element": "F", "occu": 1}], "xyz": [3.390471, -0.927565, -0.926986], "properties": {}}, {"name": "F", "species": [{"element": "F", "occu": 1}], "xyz": [1.528191, -2.599814, 1.339036], "properties": {}}, {"name": "F", "species": [{"element": "F", "occu": 1}], "xyz": [3.696288, -2.724425, 1.145838], "properties": {}}, {"name": "F", "species": [{"element": "F", "occu": 1}], "xyz": [2.804893, -2.140854, 3.048015], "properties": {}}, {"name": "O", "species": [{"element": "O", "occu": 1}], "xyz": [2.737546, 1.13983, -0.279774], "properties": {}}, {"name": "C", "species": [{"element": "C", "occu": 1}], "xyz": [2.33272, 1.860324, -1.499466], "properties": {}}, {"name": "C", "species": [{"element": "C", "occu": 1}], "xyz": [2.534442, -0.186698, -0.131199], "properties": {}}, {"name": "C", "species": [{"element": "C", "occu": 1}], "xyz": [2.744686, -0.536571, 1.339446], "properties": {}}, {"name": "C", "species": [{"element": "C", "occu": 1}], "xyz": [2.667385, 1.122445, -2.79242], "properties": {}}, {"name": "C", "species": [{"element": "C", "occu": 1}], "xyz": [0.867484, 2.276741, -1.39626], "properties": {}}, {"name": "C", "species": [{"element": "C", "occu": 1}], "xyz": [2.690338, -2.011719, 1.697172], "properties": {}}, {"name": "H", "species": [{"element": "H", "occu": 1}], "xyz": [2.963779, 2.750945, -1.424161], "properties": {}}, {"name": "H", "species": [{"element": "H", "occu": 1}], "xyz": [3.722231, -0.156481, 1.643654], "properties": {}}, {"name": "H", "species": [{"element": "H", "occu": 1}], "xyz": [1.975631, -0.022829, 1.920109], "properties": {}}, {"name": "H", "species": [{"element": "H", "occu": 1}], "xyz": [2.054569, 0.225255, -2.916907], "properties": {}}, {"name": "H", "species": [{"element": "H", "occu": 1}], "xyz": [2.46515, 1.794891, -3.634307], "properties": {}}, {"name": "H", "species": [{"element": "H", "occu": 1}], "xyz": [3.721034, 0.832841, -2.823833], "properties": {}}, {"name": "H", "species": [{"element": "H", "occu": 1}], "xyz": [0.672858, 2.756474, -0.431407], "properties": {}}, {"name": "H", "species": [{"element": "H", "occu": 1}], "xyz": [0.638236, 2.996722, -2.190922], "properties": {}}, {"name": "H", "species": [{"element": "H", "occu": 1}], "xyz": [0.199926, 1.417544, -1.503074], "properties": {}}]}, "smiles": "FC(F)(OC(C)C)CC(F)(F)F", "inchi": "InChI=1S/C6H9F5O/c1-4(2)12-6(10,11)3-5(7,8)9/h4H,3H2,1-2H3", "formula_alphabetical": "C6 F5 H9 O1", "chemsys": "C-F-H-O", "energy": -808.552871135, "esp": {"1": ["F", -0.265687], "2": ["F", -0.266058], "3": ["F", -0.208941], "4": ["F", -0.205706], "5": ["F", -0.225189], "6": ["O", -0.557282], "7": ["C", 0.580146], "8": ["C", 0.816487], "9": ["C", -0.544957], "10": ["C", -0.502161], "11": ["C", -0.482881], "12": ["C", 0.664727], "13": ["H", 0.008804], "14": ["H", 0.203497], "15": ["H", 0.203919], "16": ["H", 0.144093], "17": ["H", 0.119068], "18": ["H", 0.137555], "19": ["H", 0.124367], "20": ["H", 0.111047], "21": ["H", 0.145151]}, "dipole_moment": {"X": -0.218, "Y": 3.7833, "Z": -0.9486, "Tot": 3.9065}, "functional": "B3LYP", "basis": "6-31+G*", "phase": "gas", "tag": "lis", "state": "successful", "wall_time (s)": 10.59354771708604, "version": "0.0.1", "gauss_version": "ES64L-G16RevC.01", "last_updated": "2021-09-09 18:05:18.868000", "polarizability": 79.03, "fluorinated-solvent": "53890574", "run_ids": ["613a49bbf848f41ded7156fe", "613a4b7bd7ab9fa51f8a0d67"]}