{"_id": "614122d27645a565f40d8f95", "molecule": {"@module": "pymatgen.core.structure", "@class": "Molecule", "charge": 0, "spin_multiplicity": 1, "sites": [{"name": "F", "species": [{"element": "F", "occu": 1}], "xyz": [1.58238, -2.792732, 0.828298], "properties": {}}, {"name": "F", "species": [{"element": "F", "occu": 1}], "xyz": [2.71451, -2.346291, -0.986252], "properties": {}}, {"name": "F", "species": [{"element": "F", "occu": 1}], "xyz": [1.195765, -0.950208, -0.26568], "properties": {}}, {"name": "F", "species": [{"element": "F", "occu": 1}], "xyz": [4.181437, -3.012626, 1.984405], "properties": {}}, {"name": "O", "species": [{"element": "O", "occu": 1}], "xyz": [2.654937, -0.582846, 2.118565], "properties": {}}, {"name": "C", "species": [{"element": "C", "occu": 1}], "xyz": [3.244797, -1.053298, 0.932899], "properties": {}}, {"name": "C", "species": [{"element": "C", "occu": 1}], "xyz": [2.931997, 0.791578, 2.467439], "properties": {}}, {"name": "C", "species": [{"element": "C", "occu": 1}], "xyz": [2.168769, -1.803954, 0.137882], "properties": {}}, {"name": "C", "species": [{"element": "C", "occu": 1}], "xyz": [4.488723, -1.894267, 1.211755], "properties": {}}, {"name": "C", "species": [{"element": "C", "occu": 1}], "xyz": [2.069592, 1.745234, 1.640846], "properties": {}}, {"name": "C", "species": [{"element": "C", "occu": 1}], "xyz": [2.664426, 0.902856, 3.962368], "properties": {}}, {"name": "H", "species": [{"element": "H", "occu": 1}], "xyz": [3.559732, -0.231278, 0.271774], "properties": {}}, {"name": "H", "species": [{"element": "H", "occu": 1}], "xyz": [3.999367, 0.991667, 2.27465], "properties": {}}, {"name": "H", "species": [{"element": "H", "occu": 1}], "xyz": [4.946062, -2.241442, 0.279208], "properties": {}}, {"name": "H", "species": [{"element": "H", "occu": 1}], "xyz": [5.203802, -1.284946, 1.775508], "properties": {}}, {"name": "H", "species": [{"element": "H", "occu": 1}], "xyz": [1.008988, 1.547351, 1.830096], "properties": {}}, {"name": "H", "species": [{"element": "H", "occu": 1}], "xyz": [2.289035, 2.785284, 1.909709], "properties": {}}, {"name": "H", "species": [{"element": "H", "occu": 1}], "xyz": [2.247248, 1.630872, 0.565839], "properties": {}}, {"name": "H", "species": [{"element": "H", "occu": 1}], "xyz": [3.296913, 0.204417, 4.51927], "properties": {}}, {"name": "H", "species": [{"element": "H", "occu": 1}], "xyz": [2.86628, 1.921649, 4.311883], "properties": {}}, {"name": "H", "species": [{"element": "H", "occu": 1}], "xyz": [1.616639, 0.662089, 4.174176], "properties": {}}]}, "smiles": "FC(F)(F)[C@@H](OC(C)C)CF", "inchi": "InChI=1S/C6H10F4O/c1-4(2)11-5(3-7)6(8,9)10/h4-5H,3H2,1-2H3/t5-/m0/s1", "formula_alphabetical": "C6 F4 H10 O1", "chemsys": "C-F-H-O", "energy": -709.280694882, "esp": {"1": ["F", -0.178798], "2": ["F", -0.228981], "3": ["F", -0.223833], "4": ["F", -0.24507], "5": ["O", -0.487623], "6": ["C", 0.088782], "7": ["C", 0.694711], "8": ["C", 0.611566], "9": ["C", 0.122796], "10": ["C", -0.527624], "11": ["C", -0.473565], "12": ["H", 0.03836], "13": ["H", -0.070807], "14": ["H", 0.058393], "15": ["H", 0.075761], "16": ["H", 0.147244], "17": ["H", 0.111234], "18": ["H", 0.131262], "19": ["H", 0.123318], "20": ["H", 0.101897], "21": ["H", 0.130977]}, "dipole_moment": {"X": 2.3851, "Y": 3.7958, "Z": 0.0167, "Tot": 4.483}, "functional": "B3LYP", "basis": "6-31+G*", "phase": "gas", "tag": "lis", "state": "successful", "wall_time (s)": 10.366923613008112, "version": "0.0.1", "gauss_version": "ES64L-G16RevC.01", "last_updated": "2021-09-14 22:31:45.749000", "polarizability": 78.98, "fluorinated-solvent": "57124257", "run_ids": ["614122bb19779a10f0706883", "614122cc4aa9b18642b86d24"]}