{"_id": "614124e71d2dc589a1ea449b", "molecule": {"@module": "pymatgen.core.structure", "@class": "Molecule", "charge": 0, "spin_multiplicity": 1, "sites": [{"name": "F", "species": [{"element": "F", "occu": 1}], "xyz": [1.258374, 0.201783, -0.294741], "properties": {}}, {"name": "F", "species": [{"element": "F", "occu": 1}], "xyz": [3.292893, 0.696476, -0.929173], "properties": {}}, {"name": "O", "species": [{"element": "O", "occu": 1}], "xyz": [2.941939, 0.031492, 1.198984], "properties": {}}, {"name": "C", "species": [{"element": "C", "occu": 1}], "xyz": [2.799679, -1.609561, -0.528584], "properties": {}}, {"name": "C", "species": [{"element": "C", "occu": 1}], "xyz": [2.587404, -0.164526, -0.091816], "properties": {}}, {"name": "C", "species": [{"element": "C", "occu": 1}], "xyz": [4.285273, -1.989665, -0.455784], "properties": {}}, {"name": "C", "species": [{"element": "C", "occu": 1}], "xyz": [1.923483, -2.561742, 0.297761], "properties": {}}, {"name": "C", "species": [{"element": "C", "occu": 1}], "xyz": [2.810491, 1.374301, 1.730857], "properties": {}}, {"name": "C", "species": [{"element": "C", "occu": 1}], "xyz": [3.113869, 1.30474, 3.219874], "properties": {}}, {"name": "C", "species": [{"element": "C", "occu": 1}], "xyz": [2.11198, 0.448262, 4.002347], "properties": {}}, {"name": "H", "species": [{"element": "H", "occu": 1}], "xyz": [2.471799, -1.634461, -1.575371], "properties": {}}, {"name": "H", "species": [{"element": "H", "occu": 1}], "xyz": [4.640206, -1.961523, 0.580174], "properties": {}}, {"name": "H", "species": [{"element": "H", "occu": 1}], "xyz": [4.426421, -3.006534, -0.838976], "properties": {}}, {"name": "H", "species": [{"element": "H", "occu": 1}], "xyz": [4.902947, -1.309748, -1.050815], "properties": {}}, {"name": "H", "species": [{"element": "H", "occu": 1}], "xyz": [0.86574, -2.286986, 0.238542], "properties": {}}, {"name": "H", "species": [{"element": "H", "occu": 1}], "xyz": [2.034423, -3.585765, -0.076138], "properties": {}}, {"name": "H", "species": [{"element": "H", "occu": 1}], "xyz": [2.225512, -2.547089, 1.350636], "properties": {}}, {"name": "H", "species": [{"element": "H", "occu": 1}], "xyz": [3.514464, 2.028702, 1.20587], "properties": {}}, {"name": "H", "species": [{"element": "H", "occu": 1}], "xyz": [1.789486, 1.729058, 1.549555], "properties": {}}, {"name": "H", "species": [{"element": "H", "occu": 1}], "xyz": [4.132, 0.916383, 3.354082], "properties": {}}, {"name": "H", "species": [{"element": "H", "occu": 1}], "xyz": [3.113778, 2.334175, 3.603727], "properties": {}}, {"name": "H", "species": [{"element": "H", "occu": 1}], "xyz": [2.114921, -0.584595, 3.63889], "properties": {}}, {"name": "H", "species": [{"element": "H", "occu": 1}], "xyz": [2.356359, 0.435133, 5.070745], "properties": {}}, {"name": "H", "species": [{"element": "H", "occu": 1}], "xyz": [1.092058, 0.839209, 3.894174], "properties": {}}]}, "smiles": "FC(F)(OCCC)C(C)C", "inchi": "InChI=1S/C7H14F2O/c1-4-5-10-7(8,9)6(2)3/h6H,4-5H2,1-3H3", "formula_alphabetical": "C7 F2 H14 O1", "chemsys": "C-F-H-O", "energy": -550.131136776, "esp": {"1": ["F", -0.249999], "2": ["F", -0.244697], "3": ["O", -0.257478], "4": ["C", 0.288523], "5": ["C", 0.405273], "6": ["C", -0.391728], "7": ["C", -0.400245], "8": ["C", -0.015245], "9": ["C", 0.087819], "10": ["C", -0.191892], "11": ["H", 0.016893], "12": ["H", 0.092824], "13": ["H", 0.105365], "14": ["H", 0.099658], "15": ["H", 0.100483], "16": ["H", 0.101847], "17": ["H", 0.110994], "18": ["H", 0.073696], "19": ["H", 0.099111], "20": ["H", 0.015981], "21": ["H", 0.001908], "22": ["H", 0.04846], "23": ["H", 0.04946], "24": ["H", 0.052988]}, "dipole_moment": {"X": 0.549, "Y": -0.4856, "Z": 1.3892, "Tot": 1.5707}, "functional": "B3LYP", "basis": "6-31+G*", "phase": "gas", "tag": "lis", "state": "successful", "wall_time (s)": 10.257503226050176, "version": "0.0.1", "gauss_version": "ES64L-G16RevC.01", "last_updated": "2021-09-14 22:40:39.603000", "polarizability": 88.26, "fluorinated-solvent": "58422596", "run_ids": ["614124d211a3f2aa8aa46be0", "614124e3ed461a50353bd9d6"]}