{"_id": "61412bf0a6a0c973d84bd8c9", "molecule": {"@module": "pymatgen.core.structure", "@class": "Molecule", "charge": 0, "spin_multiplicity": 1, "sites": [{"name": "F", "species": [{"element": "F", "occu": 1}], "xyz": [-1.507126, 3.229581, -2.422182], "properties": {}}, {"name": "F", "species": [{"element": "F", "occu": 1}], "xyz": [-0.095856, 2.656292, -0.829046], "properties": {}}, {"name": "F", "species": [{"element": "F", "occu": 1}], "xyz": [-0.490976, 5.350999, -1.013925], "properties": {}}, {"name": "F", "species": [{"element": "F", "occu": 1}], "xyz": [1.545748, 4.764542, -1.539391], "properties": {}}, {"name": "F", "species": [{"element": "F", "occu": 1}], "xyz": [0.137324, 5.346158, -3.104926], "properties": {}}, {"name": "O", "species": [{"element": "O", "occu": 1}], "xyz": [0.167222, 1.142299, -3.29323], "properties": {}}, {"name": "O", "species": [{"element": "O", "occu": 1}], "xyz": [0.395044, -2.166042, -0.670377], "properties": {}}, {"name": "C", "species": [{"element": "C", "occu": 1}], "xyz": [0.137383, -1.198658, -2.844552], "properties": {}}, {"name": "C", "species": [{"element": "C", "occu": 1}], "xyz": [0.704042, 0.144496, -2.407814], "properties": {}}, {"name": "C", "species": [{"element": "C", "occu": 1}], "xyz": [0.640268, 2.447495, -3.101471], "properties": {}}, {"name": "C", "species": [{"element": "C", "occu": 1}], "xyz": [-0.189663, 3.225342, -2.072581], "properties": {}}, {"name": "C", "species": [{"element": "C", "occu": 1}], "xyz": [0.714275, -2.357055, -2.040475], "properties": {}}, {"name": "C", "species": [{"element": "C", "occu": 1}], "xyz": [0.251469, 4.704504, -1.922701], "properties": {}}, {"name": "C", "species": [{"element": "C", "occu": 1}], "xyz": [0.870329, -3.20397, 0.177764], "properties": {}}, {"name": "C", "species": [{"element": "C", "occu": 1}], "xyz": [0.467277, -2.878578, 1.606659], "properties": {}}, {"name": "H", "species": [{"element": "H", "occu": 1}], "xyz": [-0.952994, -1.181788, -2.733379], "properties": {}}, {"name": "H", "species": [{"element": "H", "occu": 1}], "xyz": [0.359285, -1.355394, -3.907887], "properties": {}}, {"name": "H", "species": [{"element": "H", "occu": 1}], "xyz": [1.804329, 0.145889, -2.487107], "properties": {}}, {"name": "H", "species": [{"element": "H", "occu": 1}], "xyz": [0.431518, 0.357748, -1.370349], "properties": {}}, {"name": "H", "species": [{"element": "H", "occu": 1}], "xyz": [0.550563, 2.972879, -4.057413], "properties": {}}, {"name": "H", "species": [{"element": "H", "occu": 1}], "xyz": [1.692212, 2.469934, -2.781653], "properties": {}}, {"name": "H", "species": [{"element": "H", "occu": 1}], "xyz": [0.29514, -3.311713, -2.400525], "properties": {}}, {"name": "H", "species": [{"element": "H", "occu": 1}], "xyz": [1.811043, -2.408897, -2.166985], "properties": {}}, {"name": "H", "species": [{"element": "H", "occu": 1}], "xyz": [0.441112, -4.170203, -0.139115], "properties": {}}, {"name": "H", "species": [{"element": "H", "occu": 1}], "xyz": [1.967729, -3.284727, 0.090222], "properties": {}}, {"name": "H", "species": [{"element": "H", "occu": 1}], "xyz": [-0.622407, -2.805089, 1.689679], "properties": {}}, {"name": "H", "species": [{"element": "H", "occu": 1}], "xyz": [0.818123, -3.66132, 2.28957], "properties": {}}, {"name": "H", "species": [{"element": "H", "occu": 1}], "xyz": [0.901297, -1.922563, 1.919089], "properties": {}}]}, "smiles": "FC(F)(COCCCOCC)C(F)(F)F", "inchi": "InChI=1S/C8H13F5O2/c1-2-14-4-3-5-15-6-7(9,10)8(11,12)13/h2-6H2,1H3", "formula_alphabetical": "C8 F5 H13 O2", "chemsys": "C-F-H-O", "energy": -962.362282426, "esp": {"1": ["F", -0.151211], "2": ["F", -0.160022], "3": ["F", -0.136946], "4": ["F", -0.169431], "5": ["F", -0.164947], "6": ["O", -0.473125], "7": ["O", -0.415886], "8": ["C", -0.098826], "9": ["C", 0.355165], "10": ["C", 0.178917], "11": ["C", 0.212977], "12": ["C", 0.102875], "13": ["C", 0.436339], "14": ["C", 0.317029], "15": ["C", -0.277373], "16": ["H", 0.075124], "17": ["H", 0.029387], "18": ["H", 0.002888], "19": ["H", -0.013774], "20": ["H", 0.079542], "21": ["H", 0.024479], "22": ["H", 0.037229], "23": ["H", 0.008979], "24": ["H", -0.01143], "25": ["H", -0.017986], "26": ["H", 0.084101], "27": ["H", 0.06327], "28": ["H", 0.082659]}, "dipole_moment": {"X": 2.4508, "Y": -2.7493, "Z": -0.5723, "Tot": 3.7273}, "functional": "B3LYP", "basis": "6-31+G*", "phase": "gas", "tag": "lis", "state": "successful", "wall_time (s)": 17.122152923955582, "version": "0.0.1", "gauss_version": "ES64L-G16RevC.01", "last_updated": "2021-09-14 23:10:39.988000", "polarizability": 108.95, "fluorinated-solvent": "88866036", "run_ids": ["61412bc904991f5a65f0c6bf", "61412be75d82f768024c212a"]}