{"_id": "613a5479b74333537b465828", "molecule": {"@module": "pymatgen.core.structure", "@class": "Molecule", "charge": 0, "spin_multiplicity": 1, "sites": [{"name": "F", "species": [{"element": "F", "occu": 1}], "xyz": [1.126648, -0.437145, 0.161804], "properties": {}}, {"name": "F", "species": [{"element": "F", "occu": 1}], "xyz": [2.679271, -0.003204, -1.316656], "properties": {}}, {"name": "F", "species": [{"element": "F", "occu": 1}], "xyz": [2.92503, -1.773813, 1.748703], "properties": {}}, {"name": "F", "species": [{"element": "F", "occu": 1}], "xyz": [2.783061, -2.5271, -0.318842], "properties": {}}, {"name": "O", "species": [{"element": "O", "occu": 1}], "xyz": [2.8927, 0.827014, 0.77029], "properties": {}}, {"name": "C", "species": [{"element": "C", "occu": 1}], "xyz": [2.473585, -0.218194, 0.034624], "properties": {}}, {"name": "C", "species": [{"element": "C", "occu": 1}], "xyz": [3.257927, -1.490712, 0.446022], "properties": {}}, {"name": "C", "species": [{"element": "C", "occu": 1}], "xyz": [2.202826, 2.094117, 0.56882], "properties": {}}, {"name": "C", "species": [{"element": "C", "occu": 1}], "xyz": [2.981773, 3.158677, 1.324379], "properties": {}}, {"name": "C", "species": [{"element": "C", "occu": 1}], "xyz": [4.755659, -1.378076, 0.301179], "properties": {}}, {"name": "C", "species": [{"element": "C", "occu": 1}], "xyz": [4.39805, 3.37597, 0.780355], "properties": {}}, {"name": "H", "species": [{"element": "H", "occu": 1}], "xyz": [2.170208, 2.308579, -0.50538], "properties": {}}, {"name": "H", "species": [{"element": "H", "occu": 1}], "xyz": [1.181413, 1.991551, 0.948209], "properties": {}}, {"name": "H", "species": [{"element": "H", "occu": 1}], "xyz": [2.403886, 4.090688, 1.260655], "properties": {}}, {"name": "H", "species": [{"element": "H", "occu": 1}], "xyz": [3.018651, 2.880394, 2.385434], "properties": {}}, {"name": "H", "species": [{"element": "H", "occu": 1}], "xyz": [5.012408, -1.167589, -0.739834], "properties": {}}, {"name": "H", "species": [{"element": "H", "occu": 1}], "xyz": [5.128061, -0.574536, 0.94002], "properties": {}}, {"name": "H", "species": [{"element": "H", "occu": 1}], "xyz": [5.202207, -2.328988, 0.603818], "properties": {}}, {"name": "H", "species": [{"element": "H", "occu": 1}], "xyz": [4.373188, 3.674881, -0.275391], "properties": {}}, {"name": "H", "species": [{"element": "H", "occu": 1}], "xyz": [4.916296, 4.162045, 1.340898], "properties": {}}, {"name": "H", "species": [{"element": "H", "occu": 1}], "xyz": [4.991132, 2.4585, 0.855807], "properties": {}}]}, "smiles": "FC(F)(OCCC)C(F)(F)C", "inchi": "InChI=1S/C6H10F4O/c1-3-4-11-6(9,10)5(2,7)8/h3-4H2,1-2H3", "formula_alphabetical": "C6 F4 H10 O1", "chemsys": "C-F-H-O", "energy": -709.30088591, "esp": {"1": ["F", -0.17024], "2": ["F", -0.188941], "3": ["F", -0.23052], "4": ["F", -0.225285], "5": ["O", -0.275497], "6": ["C", 0.302624], "7": ["C", 0.521097], "8": ["C", 0.024692], "9": ["C", 0.085037], "10": ["C", -0.48841], "11": ["C", -0.176528], "12": ["H", 0.091007], "13": ["H", 0.075815], "14": ["H", 0.001292], "15": ["H", 0.022622], "16": ["H", 0.157623], "17": ["H", 0.155008], "18": ["H", 0.172184], "19": ["H", 0.050068], "20": ["H", 0.050741], "21": ["H", 0.045611]}, "dipole_moment": {"X": 1.8732, "Y": 3.0867, "Z": 0.3614, "Tot": 3.6286}, "functional": "B3LYP", "basis": "6-31+G*", "phase": "gas", "tag": "lis", "state": "successful", "wall_time (s)": 9.976234975038096, "version": "0.0.1", "gauss_version": "ES64L-G16RevC.01", "last_updated": "2021-09-09 18:37:45.380000", "polarizability": 78.45, "fluorinated-solvent": "54336690", "run_ids": ["613a4ad0c09e1a886ba3a3f9", "613a547435dc627bc8aa068a"]}