{"_id": "613a57b0ee83df84a048ccca", "molecule": {"@module": "pymatgen.core.structure", "@class": "Molecule", "charge": 0, "spin_multiplicity": 1, "sites": [{"name": "F", "species": [{"element": "F", "occu": 1}], "xyz": [4.860803, 1.926461, -1.982358], "properties": {}}, {"name": "F", "species": [{"element": "F", "occu": 1}], "xyz": [4.843903, 0.038154, -0.887806], "properties": {}}, {"name": "F", "species": [{"element": "F", "occu": 1}], "xyz": [4.650347, 1.928263, 0.187612], "properties": {}}, {"name": "O", "species": [{"element": "O", "occu": 1}], "xyz": [0.985318, 0.641391, -2.554951], "properties": {}}, {"name": "C", "species": [{"element": "C", "occu": 1}], "xyz": [2.764776, 1.210162, -1.083789], "properties": {}}, {"name": "C", "species": [{"element": "C", "occu": 1}], "xyz": [2.384981, 0.499293, -2.389522], "properties": {}}, {"name": "C", "species": [{"element": "C", "occu": 1}], "xyz": [4.276301, 1.273993, -0.941095], "properties": {}}, {"name": "C", "species": [{"element": "C", "occu": 1}], "xyz": [2.118687, 0.551086, 0.142233], "properties": {}}, {"name": "C", "species": [{"element": "C", "occu": 1}], "xyz": [0.487576, 0.008132, -3.729719], "properties": {}}, {"name": "C", "species": [{"element": "C", "occu": 1}], "xyz": [-1.014431, 0.229604, -3.791661], "properties": {}}, {"name": "H", "species": [{"element": "H", "occu": 1}], "xyz": [2.432565, 2.252649, -1.160862], "properties": {}}, {"name": "H", "species": [{"element": "H", "occu": 1}], "xyz": [2.918614, 0.945023, -3.242983], "properties": {}}, {"name": "H", "species": [{"element": "H", "occu": 1}], "xyz": [2.660796, -0.566791, -2.333664], "properties": {}}, {"name": "H", "species": [{"element": "H", "occu": 1}], "xyz": [2.356949, 1.098648, 1.058832], "properties": {}}, {"name": "H", "species": [{"element": "H", "occu": 1}], "xyz": [1.034116, 0.539479, 0.009933], "properties": {}}, {"name": "H", "species": [{"element": "H", "occu": 1}], "xyz": [2.464377, -0.482725, 0.255269], "properties": {}}, {"name": "H", "species": [{"element": "H", "occu": 1}], "xyz": [0.983075, 0.432286, -4.619398], "properties": {}}, {"name": "H", "species": [{"element": "H", "occu": 1}], "xyz": [0.723676, -1.069044, -3.699253], "properties": {}}, {"name": "H", "species": [{"element": "H", "occu": 1}], "xyz": [-1.243057, 1.300265, -3.825803], "properties": {}}, {"name": "H", "species": [{"element": "H", "occu": 1}], "xyz": [-1.431935, -0.245371, -4.687181], "properties": {}}, {"name": "H", "species": [{"element": "H", "occu": 1}], "xyz": [-1.502245, -0.199658, -2.909806], "properties": {}}]}, "smiles": "FC(F)(F)[C@@H](COCC)C", "inchi": "InChI=1S/C6H11F3O/c1-3-10-4-5(2)6(7,8)9/h5H,3-4H2,1-2H3/t5-/m1/s1", "formula_alphabetical": "C6 F3 H11 O1", "chemsys": "C-F-H-O", "energy": -610.05043156, "esp": {"1": ["F", -0.229791], "2": ["F", -0.220045], "3": ["F", -0.216294], "4": ["O", -0.364323], "5": ["C", 0.043393], "6": ["C", -0.046276], "7": ["C", 0.576952], "8": ["C", -0.283602], "9": ["C", 0.316434], "10": ["C", -0.329219], "11": ["H", 0.076977], "12": ["H", 0.0688], "13": ["H", 0.07284], "14": ["H", 0.081156], "15": ["H", 0.096265], "16": ["H", 0.097812], "17": ["H", -0.004451], "18": ["H", -0.006812], "19": ["H", 0.091633], "20": ["H", 0.080546], "21": ["H", 0.098003]}, "dipole_moment": {"X": -2.1797, "Y": -0.8806, "Z": -1.1758, "Tot": 2.6285}, "functional": "B3LYP", "basis": "6-31+G*", "phase": "gas", "tag": "lis", "state": "successful", "wall_time (s)": 8.651709371013567, "version": "0.0.1", "gauss_version": "ES64L-G16RevC.01", "last_updated": "2021-09-09 18:51:28.315000", "polarizability": 78.38, "fluorinated-solvent": "22002956", "run_ids": ["613a4b03c489bd7dabd7dc8d", "613a57a968b0665bc6ea15a3"]}