{"_id": "6141166acb8ca5ad4e32b86c", "molecule": {"@module": "pymatgen.core.structure", "@class": "Molecule", "charge": 0, "spin_multiplicity": 1, "sites": [{"name": "F", "species": [{"element": "F", "occu": 1}], "xyz": [0.894711, 0.043886, -0.489106], "properties": {}}, {"name": "F", "species": [{"element": "F", "occu": 1}], "xyz": [2.90228, 0.387653, -1.257837], "properties": {}}, {"name": "F", "species": [{"element": "F", "occu": 1}], "xyz": [0.728789, 2.590712, 1.075197], "properties": {}}, {"name": "F", "species": [{"element": "F", "occu": 1}], "xyz": [1.313735, -2.687224, -0.810935], "properties": {}}, {"name": "F", "species": [{"element": "F", "occu": 1}], "xyz": [3.354135, -2.339019, -1.496223], "properties": {}}, {"name": "F", "species": [{"element": "F", "occu": 1}], "xyz": [2.99485, -3.531119, 0.295232], "properties": {}}, {"name": "F", "species": [{"element": "F", "occu": 1}], "xyz": [2.532747, 4.628029, 0.833436], "properties": {}}, {"name": "F", "species": [{"element": "F", "occu": 1}], "xyz": [3.10777, 3.221287, 2.401795], "properties": {}}, {"name": "F", "species": [{"element": "F", "occu": 1}], "xyz": [4.157146, 3.209395, 0.484679], "properties": {}}, {"name": "O", "species": [{"element": "O", "occu": 1}], "xyz": [2.404951, 1.084174, 0.823245], "properties": {}}, {"name": "C", "species": [{"element": "C", "occu": 1}], "xyz": [2.670119, -1.221089, 0.502432], "properties": {}}, {"name": "C", "species": [{"element": "C", "occu": 1}], "xyz": [2.207449, 0.087885, -0.116093], "properties": {}}, {"name": "C", "species": [{"element": "C", "occu": 1}], "xyz": [1.951164, 2.363634, 0.493592], "properties": {}}, {"name": "C", "species": [{"element": "C", "occu": 1}], "xyz": [2.575403, -2.442825, -0.398527], "properties": {}}, {"name": "C", "species": [{"element": "C", "occu": 1}], "xyz": [2.956715, 3.373354, 1.07713], "properties": {}}, {"name": "H", "species": [{"element": "H", "occu": 1}], "xyz": [3.712708, -1.105176, 0.806632], "properties": {}}, {"name": "H", "species": [{"element": "H", "occu": 1}], "xyz": [2.064183, -1.407358, 1.391881], "properties": {}}, {"name": "H", "species": [{"element": "H", "occu": 1}], "xyz": [1.861414, 2.511198, -0.5856], "properties": {}}]}, "smiles": "FC(F)(O[C@@H](F)C(F)(F)F)CC(F)(F)F", "inchi": "InChI=1S/C5H3F9O/c6-2(5(12,13)14)15-4(10,11)1-3(7,8)9/h2H,1H2/t2-/m1/s1", "formula_alphabetical": "C5 F9 H3 O1", "chemsys": "C-F-H-O", "energy": -1166.21487364, "esp": {"1": ["F", -0.211541], "2": ["F", -0.240946], "3": ["F", -0.170512], "4": ["F", -0.216722], "5": ["F", -0.209288], "6": ["F", -0.227407], "7": ["F", -0.176191], "8": ["F", -0.144106], "9": ["F", -0.17888], "10": ["O", -0.349632], "11": ["C", -0.589211], "12": ["C", 0.740961], "13": ["C", 0.130422], "14": ["C", 0.726817], "15": ["C", 0.516309], "16": ["H", 0.216629], "17": ["H", 0.227213], "18": ["H", 0.156085]}, "dipole_moment": {"X": 0.5983, "Y": -0.0452, "Z": 0.6014, "Tot": 0.8495}, "functional": "B3LYP", "basis": "6-31+G*", "phase": "gas", "tag": "lis", "state": "successful", "wall_time (s)": 11.307187114958651, "version": "0.0.1", "gauss_version": "ES64L-G16RevC.01", "last_updated": "2021-09-14 21:38:50.025000", "polarizability": 70.92, "fluorinated-solvent": "87503230", "run_ids": ["6141163ec1f2124b3aa5ac18", "61411660613e4a717ca551bb"]}