{"_id": "61411f625ed6efe9628ad509", "molecule": {"@module": "pymatgen.core.structure", "@class": "Molecule", "charge": 0, "spin_multiplicity": 1, "sites": [{"name": "F", "species": [{"element": "F", "occu": 1}], "xyz": [3.183, 0.625892, -1.100598], "properties": {}}, {"name": "F", "species": [{"element": "F", "occu": 1}], "xyz": [1.224499, 0.020181, -0.291891], "properties": {}}, {"name": "F", "species": [{"element": "F", "occu": 1}], "xyz": [2.150465, 0.176803, 2.264433], "properties": {}}, {"name": "F", "species": [{"element": "F", "occu": 1}], "xyz": [3.789097, -3.95952, -0.829843], "properties": {}}, {"name": "F", "species": [{"element": "F", "occu": 1}], "xyz": [1.658144, -3.934788, -0.348358], "properties": {}}, {"name": "F", "species": [{"element": "F", "occu": 1}], "xyz": [3.265782, -3.530165, -3.497257], "properties": {}}, {"name": "F", "species": [{"element": "F", "occu": 1}], "xyz": [4.877729, -0.176784, 1.926367], "properties": {}}, {"name": "F", "species": [{"element": "F", "occu": 1}], "xyz": [4.977625, 1.630604, 0.701885], "properties": {}}, {"name": "F", "species": [{"element": "F", "occu": 1}], "xyz": [4.307318, 1.74858, 2.77444], "properties": {}}, {"name": "F", "species": [{"element": "F", "occu": 1}], "xyz": [1.833437, -5.693973, -4.132475], "properties": {}}, {"name": "F", "species": [{"element": "F", "occu": 1}], "xyz": [3.053951, -6.147853, -2.385097], "properties": {}}, {"name": "F", "species": [{"element": "F", "occu": 1}], "xyz": [0.907408, -5.807057, -2.161166], "properties": {}}, {"name": "O", "species": [{"element": "O", "occu": 1}], "xyz": [2.604269, -2.088877, -1.224471], "properties": {}}, {"name": "C", "species": [{"element": "C", "occu": 1}], "xyz": [2.574843, -0.024817, -0.061043], "properties": {}}, {"name": "C", "species": [{"element": "C", "occu": 1}], "xyz": [3.031101, -1.475366, -0.000923], "properties": {}}, {"name": "C", "species": [{"element": "C", "occu": 1}], "xyz": [2.808691, 0.803278, 1.220258], "properties": {}}, {"name": "C", "species": [{"element": "C", "occu": 1}], "xyz": [2.588506, -3.443316, -1.233427], "properties": {}}, {"name": "C", "species": [{"element": "C", "occu": 1}], "xyz": [2.236136, -3.903106, -2.660416], "properties": {}}, {"name": "C", "species": [{"element": "C", "occu": 1}], "xyz": [4.269775, 1.000272, 1.656346], "properties": {}}, {"name": "C", "species": [{"element": "C", "occu": 1}], "xyz": [2.015551, -5.418463, -2.824547], "properties": {}}, {"name": "H", "species": [{"element": "H", "occu": 1}], "xyz": [4.118581, -1.521471, 0.079533], "properties": {}}, {"name": "H", "species": [{"element": "H", "occu": 1}], "xyz": [2.568673, -1.958094, 0.864127], "properties": {}}, {"name": "H", "species": [{"element": "H", "occu": 1}], "xyz": [2.367939, 1.791614, 1.058466], "properties": {}}, {"name": "H", "species": [{"element": "H", "occu": 1}], "xyz": [1.318128, -3.394287, -2.968056], "properties": {}}]}, "smiles": "FC(F)(COC(F)(F)[C@@H](F)C(F)(F)F)[C@@H](F)C(F)(F)F", "inchi": "InChI=1S/C7H4F12O/c8-2(5(12,13)14)4(10,11)1-20-7(18,19)3(9)6(15,16)17/h2-3H,1H2/t2-,3+/m1/s1", "formula_alphabetical": "C7 F12 H4 O1", "chemsys": "C-F-H-O", "energy": -1542.5471582, "esp": {"1": ["F", -0.206906], "2": ["F", -0.196146], "3": ["F", -0.161313], "4": ["F", -0.16823], "5": ["F", -0.179183], "6": ["F", -0.153804], "7": ["F", -0.17648], "8": ["F", -0.171865], "9": ["F", -0.161393], "10": ["F", -0.187385], "11": ["F", -0.165603], "12": ["F", -0.197838], "13": ["O", -0.270818], "14": ["C", 0.420754], "15": ["C", 0.019944], "16": ["C", -0.124947], "17": ["C", 0.410788], "18": ["C", -0.078575], "19": ["C", 0.529271], "20": ["C", 0.591634], "21": ["H", 0.127951], "22": ["H", 0.114844], "23": ["H", 0.203414], "24": ["H", 0.181885]}, "dipole_moment": {"X": -0.7033, "Y": 2.0264, "Z": 0.9257, "Tot": 2.3362}, "functional": "B3LYP", "basis": "6-31+G*", "phase": "gas", "tag": "lis", "state": "successful", "wall_time (s)": 22.06878173793666, "version": "0.0.1", "gauss_version": "ES64L-G16RevC.01", "last_updated": "2021-09-14 22:17:06.075000", "polarizability": 96.31, "fluorinated-solvent": "86100286", "run_ids": ["61411f3290b1f7ea50b0298f", "61411f54df26786219e9347c"]}