{"_id": "613a4bc1db519ae10cc1633d", "molecule": {"@module": "pymatgen.core.structure", "@class": "Molecule", "charge": 0, "spin_multiplicity": 1, "sites": [{"name": "F", "species": [{"element": "F", "occu": 1}], "xyz": [2.43141, 2.313094, 0.251589], "properties": {}}, {"name": "F", "species": [{"element": "F", "occu": 1}], "xyz": [2.406462, 2.19114, 2.423767], "properties": {}}, {"name": "F", "species": [{"element": "F", "occu": 1}], "xyz": [0.772174, 1.31355, 1.265271], "properties": {}}, {"name": "O", "species": [{"element": "O", "occu": 1}], "xyz": [2.702358, 0.304688, 1.231281], "properties": {}}, {"name": "C", "species": [{"element": "C", "occu": 1}], "xyz": [4.620771, -1.128719, 1.08543], "properties": {}}, {"name": "C", "species": [{"element": "C", "occu": 1}], "xyz": [4.160188, 0.307907, 1.270018], "properties": {}}, {"name": "C", "species": [{"element": "C", "occu": 1}], "xyz": [4.24515, -1.717214, -0.278957], "properties": {}}, {"name": "C", "species": [{"element": "C", "occu": 1}], "xyz": [2.099962, 1.496634, 1.291643], "properties": {}}, {"name": "H", "species": [{"element": "H", "occu": 1}], "xyz": [5.711457, -1.136307, 1.216148], "properties": {}}, {"name": "H", "species": [{"element": "H", "occu": 1}], "xyz": [4.199841, -1.739176, 1.894456], "properties": {}}, {"name": "H", "species": [{"element": "H", "occu": 1}], "xyz": [4.527242, 0.953413, 0.463872], "properties": {}}, {"name": "H", "species": [{"element": "H", "occu": 1}], "xyz": [4.477035, 0.715388, 2.235652], "properties": {}}, {"name": "H", "species": [{"element": "H", "occu": 1}], "xyz": [4.681311, -1.127945, -1.095715], "properties": {}}, {"name": "H", "species": [{"element": "H", "occu": 1}], "xyz": [4.611215, -2.745634, -0.373298], "properties": {}}, {"name": "H", "species": [{"element": "H", "occu": 1}], "xyz": [3.158834, -1.728789, -0.414336], "properties": {}}]}, "smiles": "FC(F)(F)OCCC", "inchi": "InChI=1S/C4H7F3O/c1-2-3-8-4(5,6)7/h2-3H2,1H3", "formula_alphabetical": "C4 F3 H7 O1", "chemsys": "C-F-H-O", "energy": -531.429323743, "esp": {"1": ["F", -0.219837], "2": ["F", -0.218097], "3": ["F", -0.195796], "4": ["O", -0.349314], "5": ["C", 0.113847], "6": ["C", 0.056675], "7": ["C", -0.174293], "8": ["C", 0.701074], "9": ["H", -0.008646], "10": ["H", 0.017869], "11": ["H", 0.069931], "12": ["H", 0.057731], "13": ["H", 0.050435], "14": ["H", 0.046112], "15": ["H", 0.052308]}, "dipole_moment": {"X": 2.6548, "Y": -1.4446, "Z": -0.0896, "Tot": 3.0237}, "functional": "B3LYP", "basis": "6-31+G*", "phase": "gas", "tag": "lis", "state": "successful", "wall_time (s)": 6.187625688966364, "version": "0.0.1", "gauss_version": "ES64L-G16RevC.01", "last_updated": "2021-09-09 18:00:33.496000", "polarizability": 54.95, "fluorinated-solvent": "22178547", "run_ids": ["613a492f4e674555276e0f98", "613a4b389c18bba910fc2d5b"]}