{"_id": "613a54dc681ca3c2678b62e1", "molecule": {"@module": "pymatgen.core.structure", "@class": "Molecule", "charge": 0, "spin_multiplicity": 1, "sites": [{"name": "F", "species": [{"element": "F", "occu": 1}], "xyz": [4.414144, 1.830581, -3.787175], "properties": {}}, {"name": "F", "species": [{"element": "F", "occu": 1}], "xyz": [3.572155, 3.765134, -3.240532], "properties": {}}, {"name": "F", "species": [{"element": "F", "occu": 1}], "xyz": [5.075091, 3.764823, -0.891671], "properties": {}}, {"name": "F", "species": [{"element": "F", "occu": 1}], "xyz": [5.938201, 1.815717, -1.462557], "properties": {}}, {"name": "F", "species": [{"element": "F", "occu": 1}], "xyz": [2.145602, 0.196299, -2.631042], "properties": {}}, {"name": "F", "species": [{"element": "F", "occu": 1}], "xyz": [1.25023, 1.195503, -0.1611], "properties": {}}, {"name": "F", "species": [{"element": "F", "occu": 1}], "xyz": [0.896835, 3.140951, -1.086938], "properties": {}}, {"name": "F", "species": [{"element": "F", "occu": 1}], "xyz": [-2.298961, 4.69819, -4.065326], "properties": {}}, {"name": "F", "species": [{"element": "F", "occu": 1}], "xyz": [-0.411442, 3.64344, -3.803741], "properties": {}}, {"name": "F", "species": [{"element": "F", "occu": 1}], "xyz": [-1.374218, 3.698734, -6.38993], "properties": {}}, {"name": "F", "species": [{"element": "F", "occu": 1}], "xyz": [7.571065, 3.918639, -1.946716], "properties": {}}, {"name": "F", "species": [{"element": "F", "occu": 1}], "xyz": [6.920033, 2.951237, -3.789528], "properties": {}}, {"name": "F", "species": [{"element": "F", "occu": 1}], "xyz": [6.076279, 4.87976, -3.210068], "properties": {}}, {"name": "F", "species": [{"element": "F", "occu": 1}], "xyz": [0.049227, 1.460471, -5.391706], "properties": {}}, {"name": "F", "species": [{"element": "F", "occu": 1}], "xyz": [-1.861321, 0.523673, -4.89762], "properties": {}}, {"name": "F", "species": [{"element": "F", "occu": 1}], "xyz": [-1.41729, 1.081199, -6.957696], "properties": {}}, {"name": "O", "species": [{"element": "O", "occu": 1}], "xyz": [3.251755, 2.014288, -1.863688], "properties": {}}, {"name": "O", "species": [{"element": "O", "occu": 1}], "xyz": [-0.22499, 1.334284, -1.857365], "properties": {}}, {"name": "O", "species": [{"element": "O", "occu": 1}], "xyz": [-2.336318, 2.639819, -3.156792], "properties": {}}, {"name": "C", "species": [{"element": "C", "occu": 1}], "xyz": [4.110791, 2.623937, -2.725177], "properties": {}}, {"name": "C", "species": [{"element": "C", "occu": 1}], "xyz": [5.408469, 2.968356, -1.934782], "properties": {}}, {"name": "C", "species": [{"element": "C", "occu": 1}], "xyz": [2.041223, 1.54149, -2.401437], "properties": {}}, {"name": "C", "species": [{"element": "C", "occu": 1}], "xyz": [0.939668, 1.789564, -1.35448], "properties": {}}, {"name": "C", "species": [{"element": "C", "occu": 1}], "xyz": [-1.440604, 1.663446, -1.154303], "properties": {}}, {"name": "C", "species": [{"element": "C", "occu": 1}], "xyz": [-2.082893, 2.903596, -1.754507], "properties": {}}, {"name": "C", "species": [{"element": "C", "occu": 1}], "xyz": [-1.742557, 3.438779, -4.06606], "properties": {}}, {"name": "C", "species": [{"element": "C", "occu": 1}], "xyz": [-1.925198, 2.83409, -5.469674], "properties": {}}, {"name": "C", "species": [{"element": "C", "occu": 1}], "xyz": [6.51885, 3.699577, -2.751089], "properties": {}}, {"name": "C", "species": [{"element": "C", "occu": 1}], "xyz": [-1.268237, 1.454013, -5.67], "properties": {}}, {"name": "H", "species": [{"element": "H", "occu": 1}], "xyz": [1.776421, 2.043198, -3.334736], "properties": {}}, {"name": "H", "species": [{"element": "H", "occu": 1}], "xyz": [-2.086736, 0.793937, -1.290611], "properties": {}}, {"name": "H", "species": [{"element": "H", "occu": 1}], "xyz": [-1.248545, 1.807595, -0.085868], "properties": {}}, {"name": "H", "species": [{"element": "H", "occu": 1}], "xyz": [-3.051555, 3.092522, -1.281765], "properties": {}}, {"name": "H", "species": [{"element": "H", "occu": 1}], "xyz": [-1.444979, 3.780714, -1.64154], "properties": {}}, {"name": "H", "species": [{"element": "H", "occu": 1}], "xyz": [-2.995835, 2.729784, -5.66711], "properties": {}}]}, "smiles": "FC(F)(O[C@@H](F)C(F)(F)OCCOC(F)(F)[C@@H](F)C(F)(F)F)C(F)(F)C(F)(F)F", "inchi": "InChI=1S/C10H6F16O3/c11-3(5(13,14)15)6(16,17)27-1-2-28-7(18,19)4(12)29-10(25,26)8(20,21)9(22,23)24/h3-4H,1-2H2/t3-,4+/m0/s1", "formula_alphabetical": "C10 F16 H6 O3", "chemsys": "C-F-H-O", "energy": -2207.90558944, "esp": {"1": ["F", -0.128496], "2": ["F", -0.150626], "3": ["F", -0.10978], "4": ["F", -0.101494], "5": ["F", -0.181359], "6": ["F", -0.142449], "7": ["F", -0.169071], "8": ["F", -0.180451], "9": ["F", -0.16019], "10": ["F", -0.161244], "11": ["F", -0.163558], "12": ["F", -0.167561], "13": ["F", -0.162884], "14": ["F", -0.162631], "15": ["F", -0.183944], "16": ["F", -0.17141], "17": ["O", -0.180758], "18": ["O", -0.258782], "19": ["O", -0.347144], "20": ["C", 0.323595], "21": ["C", 0.104779], "22": ["C", 0.206305], "23": ["C", 0.307841], "24": ["C", 0.016546], "25": ["C", 0.154727], "26": ["C", 0.408733], "27": ["C", -0.035709], "28": ["C", 0.571567], "29": ["C", 0.523889], "30": ["H", 0.169153], "31": ["H", 0.123322], "32": ["H", 0.083998], "33": ["H", 0.060797], "34": ["H", 0.084954], "35": ["H", 0.179335]}, "dipole_moment": {"X": -4.937, "Y": 0.1883, "Z": 1.8001, "Tot": 5.2584}, "functional": "B3LYP", "basis": "6-31+G*", "phase": "gas", "tag": "lis", "state": "successful", "wall_time (s)": 57.66621967393439, "version": "0.0.1", "gauss_version": "ES64L-G16RevC.01", "last_updated": "2021-09-09 18:39:23.766000", "polarizability": 142.23, "fluorinated-solvent": "21902260", "run_ids": ["613a4ad44c6030fdb3fb9e14", "613a54d5940c280e1b2b05a7"]}