{"_id": "61410c591551767574d55fa8", "molecule": {"@module": "pymatgen.core.structure", "@class": "Molecule", "charge": 0, "spin_multiplicity": 1, "sites": [{"name": "F", "species": [{"element": "F", "occu": 1}], "xyz": [0.945104, -0.091575, -0.027886], "properties": {}}, {"name": "F", "species": [{"element": "F", "occu": 1}], "xyz": [2.604665, -0.627386, -1.346084], "properties": {}}, {"name": "F", "species": [{"element": "F", "occu": 1}], "xyz": [2.63057, 3.937512, 0.444074], "properties": {}}, {"name": "F", "species": [{"element": "F", "occu": 1}], "xyz": [4.281876, 3.400101, -0.874162], "properties": {}}, {"name": "F", "species": [{"element": "F", "occu": 1}], "xyz": [2.483894, 4.328445, -1.701978], "properties": {}}, {"name": "O", "species": [{"element": "O", "occu": 1}], "xyz": [2.79226, 1.198924, -0.03952], "properties": {}}, {"name": "C", "species": [{"element": "C", "occu": 1}], "xyz": [2.329098, -0.0852, -0.100728], "properties": {}}, {"name": "C", "species": [{"element": "C", "occu": 1}], "xyz": [2.936781, -0.92181, 1.004289], "properties": {}}, {"name": "C", "species": [{"element": "C", "occu": 1}], "xyz": [2.293366, 2.095093, -1.030097], "properties": {}}, {"name": "C", "species": [{"element": "C", "occu": 1}], "xyz": [2.454799, -2.375028, 0.987121], "properties": {}}, {"name": "C", "species": [{"element": "C", "occu": 1}], "xyz": [2.936669, 3.44655, -0.775275], "properties": {}}, {"name": "H", "species": [{"element": "H", "occu": 1}], "xyz": [4.023597, -0.862014, 0.884129], "properties": {}}, {"name": "H", "species": [{"element": "H", "occu": 1}], "xyz": [2.68248, -0.429741, 1.948947], "properties": {}}, {"name": "H", "species": [{"element": "H", "occu": 1}], "xyz": [2.566711, 1.766176, -2.036775], "properties": {}}, {"name": "H", "species": [{"element": "H", "occu": 1}], "xyz": [1.208264, 2.20837, -0.952419], "properties": {}}, {"name": "H", "species": [{"element": "H", "occu": 1}], "xyz": [2.7163, -2.866813, 0.044846], "properties": {}}, {"name": "H", "species": [{"element": "H", "occu": 1}], "xyz": [2.924991, -2.931116, 1.804654], "properties": {}}, {"name": "H", "species": [{"element": "H", "occu": 1}], "xyz": [1.369225, -2.432777, 1.114864], "properties": {}}]}, "smiles": "FC(F)(OCC(F)(F)F)CC", "inchi": "InChI=1S/C5H7F5O/c1-2-5(9,10)11-3-4(6,7)8/h2-3H2,1H3", "formula_alphabetical": "C5 F5 H7 O1", "chemsys": "C-F-H-O", "energy": -769.240407633, "esp": {"1": ["F", -0.254952], "2": ["F", -0.25192], "3": ["F", -0.190583], "4": ["F", -0.191707], "5": ["F", -0.234675], "6": ["O", -0.447603], "7": ["C", 0.66431], "8": ["C", -0.042071], "9": ["C", 0.001398], "10": ["C", -0.242892], "11": ["C", 0.606645], "12": ["H", 0.061634], "13": ["H", 0.064588], "14": ["H", 0.112553], "15": ["H", 0.113701], "16": ["H", 0.073037], "17": ["H", 0.085018], "18": ["H", 0.073519]}, "dipole_moment": {"X": -0.1841, "Y": -1.824, "Z": 0.5185, "Tot": 1.9052}, "functional": "B3LYP", "basis": "6-31+G*", "phase": "gas", "tag": "lis", "state": "successful", "wall_time (s)": 8.66928018501494, "version": "0.0.1", "gauss_version": "ES64L-G16RevC.01", "last_updated": "2021-09-14 20:55:52.755000", "polarizability": 67.74, "fluorinated-solvent": "89087676", "run_ids": ["61410bede06d5b0e7b1f8342", "61410c4f9d485ed47cb0b3d0"]}