{"_id": "613a517654a60211c67f4bf9", "molecule": {"@module": "pymatgen.core.structure", "@class": "Molecule", "charge": 0, "spin_multiplicity": 1, "sites": [{"name": "F", "species": [{"element": "F", "occu": 1}], "xyz": [1.096218, 0.528217, 0.325877], "properties": {}}, {"name": "F", "species": [{"element": "F", "occu": 1}], "xyz": [3.077684, 0.461061, 1.23925], "properties": {}}, {"name": "F", "species": [{"element": "F", "occu": 1}], "xyz": [0.668864, -2.401843, 0.399783], "properties": {}}, {"name": "F", "species": [{"element": "F", "occu": 1}], "xyz": [2.840476, 2.283067, -0.820206], "properties": {}}, {"name": "F", "species": [{"element": "F", "occu": 1}], "xyz": [4.249324, 0.642028, -1.277151], "properties": {}}, {"name": "F", "species": [{"element": "F", "occu": 1}], "xyz": [2.399932, -4.215809, 1.635312], "properties": {}}, {"name": "F", "species": [{"element": "F", "occu": 1}], "xyz": [2.720688, -3.933715, -0.537646], "properties": {}}, {"name": "O", "species": [{"element": "O", "occu": 1}], "xyz": [2.487362, -1.174564, -0.192973], "properties": {}}, {"name": "C", "species": [{"element": "C", "occu": 1}], "xyz": [2.388212, 0.158233, 0.101488], "properties": {}}, {"name": "C", "species": [{"element": "C", "occu": 1}], "xyz": [1.957558, -2.085053, 0.743521], "properties": {}}, {"name": "C", "species": [{"element": "C", "occu": 1}], "xyz": [2.937547, 0.956197, -1.09811], "properties": {}}, {"name": "C", "species": [{"element": "C", "occu": 1}], "xyz": [2.835429, -3.338408, 0.680764], "properties": {}}, {"name": "H", "species": [{"element": "H", "occu": 1}], "xyz": [1.953715, -1.668656, 1.755058], "properties": {}}, {"name": "H", "species": [{"element": "H", "occu": 1}], "xyz": [2.378331, 0.729163, -2.009898], "properties": {}}, {"name": "H", "species": [{"element": "H", "occu": 1}], "xyz": [3.888449, -3.103927, 0.86552], "properties": {}}]}, "smiles": "FC(F)(O[C@@H](F)C(F)F)C(F)F", "inchi": "InChI=1S/C4H3F7O/c5-1(6)2(7)12-4(10,11)3(8)9/h1-3H/t2-/m1/s1", "formula_alphabetical": "C4 F7 H3 O1", "chemsys": "C-F-H-O", "energy": -928.38214278, "esp": {"1": ["F", -0.194105], "2": ["F", -0.187442], "3": ["F", -0.162417], "4": ["F", -0.19182], "5": ["F", -0.188601], "6": ["F", -0.217932], "7": ["F", -0.175303], "8": ["O", -0.384888], "9": ["C", 0.517113], "10": ["C", 0.207599], "11": ["C", 0.276426], "12": ["C", 0.323421], "13": ["H", 0.136015], "14": ["H", 0.13556], "15": ["H", 0.106374]}, "dipole_moment": {"X": 0.844, "Y": 0.3831, "Z": 0.142, "Tot": 0.9377}, "functional": "B3LYP", "basis": "6-31+G*", "phase": "gas", "tag": "lis", "state": "successful", "wall_time (s)": 9.862292506964877, "version": "0.0.1", "gauss_version": "ES64L-G16RevC.01", "last_updated": "2021-09-09 18:24:54.231000", "polarizability": 58.28, "fluorinated-solvent": "54177144", "run_ids": ["613a4aa23fe8559284192db7", "613a5170b70a5f45b930655d"]}