{"_id": "61411784535514484e8ae396", "molecule": {"@module": "pymatgen.core.structure", "@class": "Molecule", "charge": 0, "spin_multiplicity": 1, "sites": [{"name": "F", "species": [{"element": "F", "occu": 1}], "xyz": [1.139368, -0.038144, 0.500939], "properties": {}}, {"name": "F", "species": [{"element": "F", "occu": 1}], "xyz": [2.975578, -1.220936, 0.549686], "properties": {}}, {"name": "F", "species": [{"element": "F", "occu": 1}], "xyz": [3.258788, 2.937362, -0.435695], "properties": {}}, {"name": "F", "species": [{"element": "F", "occu": 1}], "xyz": [1.48852, 2.735916, 0.820691], "properties": {}}, {"name": "F", "species": [{"element": "F", "occu": 1}], "xyz": [3.400155, 3.305306, 1.70801], "properties": {}}, {"name": "F", "species": [{"element": "F", "occu": 1}], "xyz": [2.24988, -2.303393, -4.455414], "properties": {}}, {"name": "F", "species": [{"element": "F", "occu": 1}], "xyz": [0.452705, -1.064626, -4.469608], "properties": {}}, {"name": "F", "species": [{"element": "F", "occu": 1}], "xyz": [2.140749, -0.553583, -5.758242], "properties": {}}, {"name": "O", "species": [{"element": "O", "occu": 1}], "xyz": [2.668681, 0.255739, -1.129015], "properties": {}}, {"name": "C", "species": [{"element": "C", "occu": 1}], "xyz": [2.480924, 0.024068, 0.189789], "properties": {}}, {"name": "C", "species": [{"element": "C", "occu": 1}], "xyz": [3.185023, 1.0636, 1.050051], "properties": {}}, {"name": "C", "species": [{"element": "C", "occu": 1}], "xyz": [2.033887, -0.663839, -2.048375], "properties": {}}, {"name": "C", "species": [{"element": "C", "occu": 1}], "xyz": [2.396849, -0.155797, -3.43839], "properties": {}}, {"name": "C", "species": [{"element": "C", "occu": 1}], "xyz": [2.819523, 2.51222, 0.769504], "properties": {}}, {"name": "C", "species": [{"element": "C", "occu": 1}], "xyz": [1.809054, -1.02, -4.531402], "properties": {}}, {"name": "H", "species": [{"element": "H", "occu": 1}], "xyz": [2.94445, 0.849904, 2.093606], "properties": {}}, {"name": "H", "species": [{"element": "H", "occu": 1}], "xyz": [4.262616, 0.957218, 0.908091], "properties": {}}, {"name": "H", "species": [{"element": "H", "occu": 1}], "xyz": [2.417243, -1.673565, -1.875965], "properties": {}}, {"name": "H", "species": [{"element": "H", "occu": 1}], "xyz": [0.952666, -0.65141, -1.88723], "properties": {}}, {"name": "H", "species": [{"element": "H", "occu": 1}], "xyz": [2.024844, 0.863338, -3.578706], "properties": {}}, {"name": "H", "species": [{"element": "H", "occu": 1}], "xyz": [3.483057, -0.145228, -3.568217], "properties": {}}]}, "smiles": "FC(F)(OCCC(F)(F)F)CC(F)(F)F", "inchi": "InChI=1S/C6H6F8O/c7-4(8,9)1-2-15-6(13,14)3-5(10,11)12/h1-3H2", "formula_alphabetical": "C6 F8 H6 O1", "chemsys": "C-F-H-O", "energy": -1106.29961954, "esp": {"1": ["F", -0.234159], "2": ["F", -0.250485], "3": ["F", -0.225368], "4": ["F", -0.205651], "5": ["F", -0.23173], "6": ["F", -0.206767], "7": ["F", -0.207105], "8": ["F", -0.20393], "9": ["O", -0.361617], "10": ["C", 0.646207], "11": ["C", -0.543508], "12": ["C", 0.220889], "13": ["C", -0.341944], "14": ["C", 0.712827], "15": ["C", 0.586986], "16": ["H", 0.213147], "17": ["H", 0.209666], "18": ["H", 0.056537], "19": ["H", 0.058582], "20": ["H", 0.158501], "21": ["H", 0.148924]}, "dipole_moment": {"X": 1.5744, "Y": -0.2716, "Z": 0.905, "Tot": 1.8362}, "functional": "B3LYP", "basis": "6-31+G*", "phase": "gas", "tag": "lis", "state": "successful", "wall_time (s)": 14.396999623044394, "version": "0.0.1", "gauss_version": "ES64L-G16RevC.01", "last_updated": "2021-09-14 21:43:31.915000", "polarizability": 80.98, "fluorinated-solvent": "88866363", "run_ids": ["6141175575e56a2d3c6026dd", "6141177b4447b326ff155902"]}