{"_id": "614110df5d39b7bef5032394", "molecule": {"@module": "pymatgen.core.structure", "@class": "Molecule", "charge": 0, "spin_multiplicity": 1, "sites": [{"name": "F", "species": [{"element": "F", "occu": 1}], "xyz": [1.227565, 0.176581, 0.587862], "properties": {}}, {"name": "F", "species": [{"element": "F", "occu": 1}], "xyz": [3.329494, 0.167769, 1.207614], "properties": {}}, {"name": "O", "species": [{"element": "O", "occu": 1}], "xyz": [2.727263, -1.024732, -0.621491], "properties": {}}, {"name": "C", "species": [{"element": "C", "occu": 1}], "xyz": [2.278043, -2.332881, -0.132238], "properties": {}}, {"name": "C", "species": [{"element": "C", "occu": 1}], "xyz": [2.521119, 0.117667, 0.072122], "properties": {}}, {"name": "C", "species": [{"element": "C", "occu": 1}], "xyz": [2.791082, 1.328537, -0.802522], "properties": {}}, {"name": "C", "species": [{"element": "C", "occu": 1}], "xyz": [2.540996, -2.569105, 1.353073], "properties": {}}, {"name": "C", "species": [{"element": "C", "occu": 1}], "xyz": [0.823214, -2.570339, -0.533973], "properties": {}}, {"name": "C", "species": [{"element": "C", "occu": 1}], "xyz": [2.616949, 2.658642, -0.065248], "properties": {}}, {"name": "H", "species": [{"element": "H", "occu": 1}], "xyz": [2.919885, -3.001493, -0.71477], "properties": {}}, {"name": "H", "species": [{"element": "H", "occu": 1}], "xyz": [3.811085, 1.21953, -1.18617], "properties": {}}, {"name": "H", "species": [{"element": "H", "occu": 1}], "xyz": [2.109749, 1.257925, -1.657116], "properties": {}}, {"name": "H", "species": [{"element": "H", "occu": 1}], "xyz": [1.914603, -1.928811, 1.980359], "properties": {}}, {"name": "H", "species": [{"element": "H", "occu": 1}], "xyz": [2.304467, -3.614668, 1.583987], "properties": {}}, {"name": "H", "species": [{"element": "H", "occu": 1}], "xyz": [3.588693, -2.384534, 1.604773], "properties": {}}, {"name": "H", "species": [{"element": "H", "occu": 1}], "xyz": [0.678928, -2.34291, -1.59539], "properties": {}}, {"name": "H", "species": [{"element": "H", "occu": 1}], "xyz": [0.565502, -3.623507, -0.368444], "properties": {}}, {"name": "H", "species": [{"element": "H", "occu": 1}], "xyz": [0.142276, -1.948512, 0.053464], "properties": {}}, {"name": "H", "species": [{"element": "H", "occu": 1}], "xyz": [3.30793, 2.734087, 0.780241], "properties": {}}, {"name": "H", "species": [{"element": "H", "occu": 1}], "xyz": [2.816715, 3.492846, -0.746466], "properties": {}}, {"name": "H", "species": [{"element": "H", "occu": 1}], "xyz": [1.596621, 2.766682, 0.316795], "properties": {}}]}, "smiles": "FC(F)(OC(C)C)CC", "inchi": "InChI=1S/C6H12F2O/c1-4-6(7,8)9-5(2)3/h5H,4H2,1-3H3", "formula_alphabetical": "C6 F2 H12 O1", "chemsys": "C-F-H-O", "energy": -510.814643558, "esp": {"1": ["F", -0.275067], "2": ["F", -0.271284], "3": ["O", -0.607357], "4": ["C", 0.704987], "5": ["C", 0.662335], "6": ["C", 0.011332], "7": ["C", -0.521436], "8": ["C", -0.509777], "9": ["C", -0.221892], "10": ["H", -0.024411], "11": ["H", 0.044488], "12": ["H", 0.043355], "13": ["H", 0.146938], "14": ["H", 0.108311], "15": ["H", 0.138371], "16": ["H", 0.12657], "17": ["H", 0.103719], "18": ["H", 0.147049], "19": ["H", 0.064928], "20": ["H", 0.064567], "21": ["H", 0.064274]}, "dipole_moment": {"X": -0.1396, "Y": -0.7753, "Z": -1.0492, "Tot": 1.312}, "functional": "B3LYP", "basis": "6-31+G*", "phase": "gas", "tag": "lis", "state": "successful", "wall_time (s)": 8.961338957073167, "version": "0.0.1", "gauss_version": "ES64L-G16RevC.01", "last_updated": "2021-09-14 21:15:11.694000", "polarizability": 76.97, "fluorinated-solvent": "154670708", "run_ids": ["614110a3f63d827cf6d544bb", "614110c16fd38c0f7038392b"]}