{"_id": "613a4d179ad948f778f1ba91", "molecule": {"@module": "pymatgen.core.structure", "@class": "Molecule", "charge": 0, "spin_multiplicity": 1, "sites": [{"name": "F", "species": [{"element": "F", "occu": 1}], "xyz": [5.152873, 0.378098, -3.361494], "properties": {}}, {"name": "F", "species": [{"element": "F", "occu": 1}], "xyz": [5.248862, 1.774109, -1.686279], "properties": {}}, {"name": "F", "species": [{"element": "F", "occu": 1}], "xyz": [5.310657, 2.523808, -3.73645], "properties": {}}, {"name": "O", "species": [{"element": "O", "occu": 1}], "xyz": [1.147846, 0.933352, -2.152195], "properties": {}}, {"name": "C", "species": [{"element": "C", "occu": 1}], "xyz": [0.298797, -0.054281, -1.546979], "properties": {}}, {"name": "C", "species": [{"element": "C", "occu": 1}], "xyz": [2.538814, 0.683468, -2.054404], "properties": {}}, {"name": "C", "species": [{"element": "C", "occu": 1}], "xyz": [3.225678, 1.71704, -2.945508], "properties": {}}, {"name": "C", "species": [{"element": "C", "occu": 1}], "xyz": [0.380453, -0.019136, -0.018218], "properties": {}}, {"name": "C", "species": [{"element": "C", "occu": 1}], "xyz": [-1.108874, 0.235708, -2.054835], "properties": {}}, {"name": "C", "species": [{"element": "C", "occu": 1}], "xyz": [4.730677, 1.59808, -2.931705], "properties": {}}, {"name": "H", "species": [{"element": "H", "occu": 1}], "xyz": [0.617692, -1.048699, -1.905501], "properties": {}}, {"name": "H", "species": [{"element": "H", "occu": 1}], "xyz": [2.773739, -0.336355, -2.398186], "properties": {}}, {"name": "H", "species": [{"element": "H", "occu": 1}], "xyz": [2.894515, 0.783539, -1.019325], "properties": {}}, {"name": "H", "species": [{"element": "H", "occu": 1}], "xyz": [2.967163, 2.726843, -2.612651], "properties": {}}, {"name": "H", "species": [{"element": "H", "occu": 1}], "xyz": [2.889445, 1.604111, -3.980474], "properties": {}}, {"name": "H", "species": [{"element": "H", "occu": 1}], "xyz": [0.108409, 0.977433, 0.34948], "properties": {}}, {"name": "H", "species": [{"element": "H", "occu": 1}], "xyz": [-0.313067, -0.750096, 0.413999], "properties": {}}, {"name": "H", "species": [{"element": "H", "occu": 1}], "xyz": [1.384519, -0.260812, 0.346878], "properties": {}}, {"name": "H", "species": [{"element": "H", "occu": 1}], "xyz": [-1.133886, 0.211402, -3.14913], "properties": {}}, {"name": "H", "species": [{"element": "H", "occu": 1}], "xyz": [-1.817175, -0.506573, -1.669599], "properties": {}}, {"name": "H", "species": [{"element": "H", "occu": 1}], "xyz": [-1.432013, 1.229823, -1.724475], "properties": {}}]}, "smiles": "FC(F)(F)CCOC(C)C", "inchi": "InChI=1S/C6H11F3O/c1-5(2)10-4-3-6(7,8)9/h5H,3-4H2,1-2H3", "formula_alphabetical": "C6 F3 H11 O1", "chemsys": "C-F-H-O", "energy": -610.053001685, "esp": {"1": ["F", -0.230893], "2": ["F", -0.233464], "3": ["F", -0.22581], "4": ["O", -0.526822], "5": ["C", 0.533427], "6": ["C", 0.398555], "7": ["C", -0.405382], "8": ["C", -0.436028], "9": ["C", -0.434066], "10": ["C", 0.659262], "11": ["H", -0.02813], "12": ["H", -0.025787], "13": ["H", 0.001127], "14": ["H", 0.15081], "15": ["H", 0.1505], "16": ["H", 0.129643], "17": ["H", 0.1019], "18": ["H", 0.086629], "19": ["H", 0.112424], "20": ["H", 0.103842], "21": ["H", 0.118263]}, "dipole_moment": {"X": -2.3839, "Y": -1.0597, "Z": 0.8026, "Tot": 2.7295}, "functional": "B3LYP", "basis": "6-31+G*", "phase": "gas", "tag": "lis", "state": "successful", "wall_time (s)": 8.461421136977151, "version": "0.0.1", "gauss_version": "ES64L-G16RevC.01", "last_updated": "2021-09-09 18:06:14.862000", "polarizability": 78.91, "fluorinated-solvent": "21657907", "run_ids": ["613a49dd4a8d58db8ca13000", "613a4b8824f7904fe157ea52"]}