{"_id": "61412919b610bfa9ce30c936", "molecule": {"@module": "pymatgen.core.structure", "@class": "Molecule", "charge": 0, "spin_multiplicity": 1, "sites": [{"name": "F", "species": [{"element": "F", "occu": 1}], "xyz": [1.264573, 0.484055, 0.133464], "properties": {}}, {"name": "F", "species": [{"element": "F", "occu": 1}], "xyz": [3.343499, 0.953409, 0.619108], "properties": {}}, {"name": "F", "species": [{"element": "F", "occu": 1}], "xyz": [3.566817, -3.176194, 3.660065], "properties": {}}, {"name": "F", "species": [{"element": "F", "occu": 1}], "xyz": [1.48535, -3.631297, 3.185697], "properties": {}}, {"name": "F", "species": [{"element": "F", "occu": 1}], "xyz": [3.057082, -5.062814, 2.684756], "properties": {}}, {"name": "O", "species": [{"element": "O", "occu": 1}], "xyz": [2.808017, -1.156812, 0.031597], "properties": {}}, {"name": "C", "species": [{"element": "C", "occu": 1}], "xyz": [2.828452, 0.517538, -1.674943], "properties": {}}, {"name": "C", "species": [{"element": "C", "occu": 1}], "xyz": [2.568896, 0.159552, -0.216856], "properties": {}}, {"name": "C", "species": [{"element": "C", "occu": 1}], "xyz": [2.597625, -1.61108, 1.383893], "properties": {}}, {"name": "C", "species": [{"element": "C", "occu": 1}], "xyz": [4.302878, 0.293102, -2.039336], "properties": {}}, {"name": "C", "species": [{"element": "C", "occu": 1}], "xyz": [1.882167, -0.255216, -2.604775], "properties": {}}, {"name": "C", "species": [{"element": "C", "occu": 1}], "xyz": [2.927997, -3.099096, 1.367037], "properties": {}}, {"name": "C", "species": [{"element": "C", "occu": 1}], "xyz": [2.75892, -3.741264, 2.725044], "properties": {}}, {"name": "H", "species": [{"element": "H", "occu": 1}], "xyz": [2.600557, 1.588949, -1.73855], "properties": {}}, {"name": "H", "species": [{"element": "H", "occu": 1}], "xyz": [3.257756, -1.063588, 2.06282], "properties": {}}, {"name": "H", "species": [{"element": "H", "occu": 1}], "xyz": [1.557236, -1.436895, 1.673158], "properties": {}}, {"name": "H", "species": [{"element": "H", "occu": 1}], "xyz": [4.5598, -0.769776, -1.974163], "properties": {}}, {"name": "H", "species": [{"element": "H", "occu": 1}], "xyz": [4.483424, 0.62573, -3.067442], "properties": {}}, {"name": "H", "species": [{"element": "H", "occu": 1}], "xyz": [4.970549, 0.851703, -1.376082], "properties": {}}, {"name": "H", "species": [{"element": "H", "occu": 1}], "xyz": [0.833443, -0.087832, -2.340427], "properties": {}}, {"name": "H", "species": [{"element": "H", "occu": 1}], "xyz": [2.032009, 0.073231, -3.639135], "properties": {}}, {"name": "H", "species": [{"element": "H", "occu": 1}], "xyz": [2.08428, -1.330705, -2.555323], "properties": {}}, {"name": "H", "species": [{"element": "H", "occu": 1}], "xyz": [2.273636, -3.625292, 0.665567], "properties": {}}, {"name": "H", "species": [{"element": "H", "occu": 1}], "xyz": [3.964089, -3.254356, 1.051516], "properties": {}}]}, "smiles": "FC(F)(OCCC(F)(F)F)C(C)C", "inchi": "InChI=1S/C7H11F5O/c1-5(2)7(11,12)13-4-3-6(8,9)10/h5H,3-4H2,1-2H3", "formula_alphabetical": "C7 F5 H11 O1", "chemsys": "C-F-H-O", "energy": -847.876741181, "esp": {"1": ["F", -0.233571], "2": ["F", -0.231868], "3": ["F", -0.219737], "4": ["F", -0.220625], "5": ["F", -0.217956], "6": ["O", -0.316192], "7": ["C", 0.298792], "8": ["C", 0.370276], "9": ["C", 0.24673], "10": ["C", -0.349341], "11": ["C", -0.361365], "12": ["C", -0.39027], "13": ["C", 0.640991], "14": ["H", 0.010954], "15": ["H", 0.055265], "16": ["H", 0.057155], "17": ["H", 0.085596], "18": ["H", 0.093643], "19": ["H", 0.093275], "20": ["H", 0.096772], "21": ["H", 0.097283], "22": ["H", 0.088148], "23": ["H", 0.153712], "24": ["H", 0.152332]}, "dipole_moment": {"X": 0.6235, "Y": 0.0995, "Z": -2.7709, "Tot": 2.8419}, "functional": "B3LYP", "basis": "6-31+G*", "phase": "gas", "tag": "lis", "state": "successful", "wall_time (s)": 12.21412461809814, "version": "0.0.1", "gauss_version": "ES64L-G16RevC.01", "last_updated": "2021-09-14 22:58:33.729000", "polarizability": 90.26, "fluorinated-solvent": "58422621", "run_ids": ["614128fe35daeafd035286b3", "61412912cb02b84817ba1ea2"]}