{"_id": "613a4c5a306ffb74271c6d5d", "molecule": {"@module": "pymatgen.core.structure", "@class": "Molecule", "charge": 0, "spin_multiplicity": 1, "sites": [{"name": "F", "species": [{"element": "F", "occu": 1}], "xyz": [2.608194, -0.039512, -1.242521], "properties": {}}, {"name": "F", "species": [{"element": "F", "occu": 1}], "xyz": [2.961683, -1.232269, 0.588185], "properties": {}}, {"name": "O", "species": [{"element": "O", "occu": 1}], "xyz": [2.532445, 1.177881, 2.088817], "properties": {}}, {"name": "C", "species": [{"element": "C", "occu": 1}], "xyz": [3.030524, 1.156704, 0.75878], "properties": {}}, {"name": "C", "species": [{"element": "C", "occu": 1}], "xyz": [2.391653, -0.074097, 0.120619], "properties": {}}, {"name": "C", "species": [{"element": "C", "occu": 1}], "xyz": [4.556464, 1.125824, 0.670404], "properties": {}}, {"name": "C", "species": [{"element": "C", "occu": 1}], "xyz": [2.72437, 2.402649, 2.794704], "properties": {}}, {"name": "C", "species": [{"element": "C", "occu": 1}], "xyz": [1.967754, 2.307973, 4.109296], "properties": {}}, {"name": "H", "species": [{"element": "H", "occu": 1}], "xyz": [2.637231, 2.024216, 0.201162], "properties": {}}, {"name": "H", "species": [{"element": "H", "occu": 1}], "xyz": [1.314459, -0.133828, 0.29835], "properties": {}}, {"name": "H", "species": [{"element": "H", "occu": 1}], "xyz": [4.870887, 0.987766, -0.369441], "properties": {}}, {"name": "H", "species": [{"element": "H", "occu": 1}], "xyz": [4.985562, 2.065303, 1.03166], "properties": {}}, {"name": "H", "species": [{"element": "H", "occu": 1}], "xyz": [4.950487, 0.301203, 1.271357], "properties": {}}, {"name": "H", "species": [{"element": "H", "occu": 1}], "xyz": [3.795081, 2.574019, 2.97997], "properties": {}}, {"name": "H", "species": [{"element": "H", "occu": 1}], "xyz": [2.34926, 3.242618, 2.185562], "properties": {}}, {"name": "H", "species": [{"element": "H", "occu": 1}], "xyz": [2.339833, 1.466407, 4.703269], "properties": {}}, {"name": "H", "species": [{"element": "H", "occu": 1}], "xyz": [2.098089, 3.229298, 4.689151], "properties": {}}, {"name": "H", "species": [{"element": "H", "occu": 1}], "xyz": [0.898365, 2.155864, 3.928073], "properties": {}}]}, "smiles": "FC(F)[C@@H](OCC)C", "inchi": "InChI=1S/C5H10F2O/c1-3-8-4(2)5(6)7/h4-5H,3H2,1-2H3/t4-/m0/s1", "formula_alphabetical": "C5 F2 H10 O1", "chemsys": "C-F-H-O", "energy": -471.478147853, "esp": {"1": ["F", -0.260687], "2": ["F", -0.229728], "3": ["O", -0.51766], "4": ["C", 0.235316], "5": ["C", 0.376311], "6": ["C", -0.36309], "7": ["C", 0.428161], "8": ["C", -0.370588], "9": ["H", 0.035646], "10": ["H", 0.074796], "11": ["H", 0.112425], "12": ["H", 0.087696], "13": ["H", 0.140034], "14": ["H", -0.014737], "15": ["H", -0.03236], "16": ["H", 0.116869], "17": ["H", 0.076365], "18": ["H", 0.105233]}, "dipole_moment": {"X": -0.0595, "Y": 2.8339, "Z": 1.0748, "Tot": 3.0315}, "functional": "B3LYP", "basis": "6-31+G*", "phase": "gas", "tag": "lis", "state": "successful", "wall_time (s)": 6.846168541000225, "version": "0.0.1", "gauss_version": "ES64L-G16RevC.01", "last_updated": "2021-09-09 18:03:05.848000", "polarizability": 66.2, "fluorinated-solvent": "10464348", "run_ids": ["613a4980cdbb09ead3bc180a", "613a4b58ee9987f3f877154e"]}