{"_id": "61410fd57e8daf18061c9370", "molecule": {"@module": "pymatgen.core.structure", "@class": "Molecule", "charge": 0, "spin_multiplicity": 1, "sites": [{"name": "F", "species": [{"element": "F", "occu": 1}], "xyz": [0.943047, -0.870953, 3.186112], "properties": {}}, {"name": "F", "species": [{"element": "F", "occu": 1}], "xyz": [1.584643, -0.621906, 5.293822], "properties": {}}, {"name": "O", "species": [{"element": "O", "occu": 1}], "xyz": [0.971262, 2.104503, 3.008668], "properties": {}}, {"name": "O", "species": [{"element": "O", "occu": 1}], "xyz": [-0.008069, 1.405234, -1.050329], "properties": {}}, {"name": "C", "species": [{"element": "C", "occu": 1}], "xyz": [0.36407, 2.845741, 0.82614], "properties": {}}, {"name": "C", "species": [{"element": "C", "occu": 1}], "xyz": [1.13072, 1.794322, 1.616436], "properties": {}}, {"name": "C", "species": [{"element": "C", "occu": 1}], "xyz": [0.520543, 2.670381, -0.678695], "properties": {}}, {"name": "C", "species": [{"element": "C", "occu": 1}], "xyz": [1.68968, 1.284123, 3.902756], "properties": {}}, {"name": "C", "species": [{"element": "C", "occu": 1}], "xyz": [0.938621, 0.006337, 4.249732], "properties": {}}, {"name": "C", "species": [{"element": "C", "occu": 1}], "xyz": [0.086014, 1.146897, -2.438967], "properties": {}}, {"name": "H", "species": [{"element": "H", "occu": 1}], "xyz": [-0.698719, 2.792781, 1.090544], "properties": {}}, {"name": "H", "species": [{"element": "H", "occu": 1}], "xyz": [0.724838, 3.84298, 1.108974], "properties": {}}, {"name": "H", "species": [{"element": "H", "occu": 1}], "xyz": [2.203026, 1.823089, 1.358909], "properties": {}}, {"name": "H", "species": [{"element": "H", "occu": 1}], "xyz": [0.753097, 0.791373, 1.393305], "properties": {}}, {"name": "H", "species": [{"element": "H", "occu": 1}], "xyz": [-0.013344, 3.475679, -1.211366], "properties": {}}, {"name": "H", "species": [{"element": "H", "occu": 1}], "xyz": [1.585413, 2.731244, -0.968537], "properties": {}}, {"name": "H", "species": [{"element": "H", "occu": 1}], "xyz": [1.817823, 1.853571, 4.829356], "properties": {}}, {"name": "H", "species": [{"element": "H", "occu": 1}], "xyz": [2.683435, 1.011921, 3.514993], "properties": {}}, {"name": "H", "species": [{"element": "H", "occu": 1}], "xyz": [-0.10373, 0.174514, 4.536225], "properties": {}}, {"name": "H", "species": [{"element": "H", "occu": 1}], "xyz": [-0.472824, 1.894277, -3.02588], "properties": {}}, {"name": "H", "species": [{"element": "H", "occu": 1}], "xyz": [1.134999, 1.144954, -2.777885], "properties": {}}, {"name": "H", "species": [{"element": "H", "occu": 1}], "xyz": [-0.347753, 0.158547, -2.611534], "properties": {}}]}, "smiles": "FC(F)COCCCOC", "inchi": "InChI=1S/C6H12F2O2/c1-9-3-2-4-10-5-6(7)8/h6H,2-5H2,1H3", "formula_alphabetical": "C6 F2 H12 O2", "chemsys": "C-F-H-O", "energy": -585.993653712, "esp": {"1": ["F", -0.235349], "2": ["F", -0.281399], "3": ["O", -0.495554], "4": ["O", -0.309154], "5": ["C", -0.27599], "6": ["C", 0.44886], "7": ["C", 0.138768], "8": ["C", 0.026579], "9": ["C", 0.418535], "10": ["C", -0.118496], "11": ["H", 0.098215], "12": ["H", 0.079609], "13": ["H", -0.007913], "14": ["H", -0.055634], "15": ["H", 0.048466], "16": ["H", 0.019045], "17": ["H", 0.098573], "18": ["H", 0.070093], "19": ["H", 0.081927], "20": ["H", 0.069333], "21": ["H", 0.072186], "22": ["H", 0.109298]}, "dipole_moment": {"X": 0.4204, "Y": 2.0507, "Z": -1.8724, "Tot": 2.8085}, "functional": "B3LYP", "basis": "6-31+G*", "phase": "gas", "tag": "lis", "state": "successful", "wall_time (s)": 8.582513672998175, "version": "0.0.1", "gauss_version": "ES64L-G16RevC.01", "last_updated": "2021-09-14 21:10:45.453000", "polarizability": 83.13, "fluorinated-solvent": "142607609", "run_ids": ["61410fb10e5ab50dbcf8f6d9", "61410fd072b80e69f6e6ab1f"]}