{"_id": "61412201cfcb642ba8824457", "molecule": {"@module": "pymatgen.core.structure", "@class": "Molecule", "charge": 0, "spin_multiplicity": 1, "sites": [{"name": "F", "species": [{"element": "F", "occu": 1}], "xyz": [4.718372, -2.343077, 0.659601], "properties": {}}, {"name": "F", "species": [{"element": "F", "occu": 1}], "xyz": [4.834818, -1.522916, -1.38409], "properties": {}}, {"name": "F", "species": [{"element": "F", "occu": 1}], "xyz": [6.53157, -0.314861, 0.38719], "properties": {}}, {"name": "F", "species": [{"element": "F", "occu": 1}], "xyz": [4.974678, 1.032861, -0.339362], "properties": {}}, {"name": "F", "species": [{"element": "F", "occu": 1}], "xyz": [4.859214, 0.220591, 1.685126], "properties": {}}, {"name": "F", "species": [{"element": "F", "occu": 1}], "xyz": [-1.775365, -3.237209, -0.084813], "properties": {}}, {"name": "F", "species": [{"element": "F", "occu": 1}], "xyz": [-1.657286, -2.427304, -2.108347], "properties": {}}, {"name": "F", "species": [{"element": "F", "occu": 1}], "xyz": [-1.619699, -4.588379, -1.793798], "properties": {}}, {"name": "O", "species": [{"element": "O", "occu": 1}], "xyz": [2.26586, -2.168752, -0.599923], "properties": {}}, {"name": "C", "species": [{"element": "C", "occu": 1}], "xyz": [4.400023, -1.26798, -0.116819], "properties": {}}, {"name": "C", "species": [{"element": "C", "occu": 1}], "xyz": [2.89677, -1.015748, -0.101222], "properties": {}}, {"name": "C", "species": [{"element": "C", "occu": 1}], "xyz": [0.847962, -2.057135, -0.636588], "properties": {}}, {"name": "C", "species": [{"element": "C", "occu": 1}], "xyz": [0.326742, -3.377486, -1.195613], "properties": {}}, {"name": "C", "species": [{"element": "C", "occu": 1}], "xyz": [5.218284, -0.060273, 0.41443], "properties": {}}, {"name": "C", "species": [{"element": "C", "occu": 1}], "xyz": [-1.180792, -3.408188, -1.295841], "properties": {}}, {"name": "H", "species": [{"element": "H", "occu": 1}], "xyz": [2.592418, -0.799541, 0.933743], "properties": {}}, {"name": "H", "species": [{"element": "H", "occu": 1}], "xyz": [2.686917, -0.133873, -0.724745], "properties": {}}, {"name": "H", "species": [{"element": "H", "occu": 1}], "xyz": [0.451937, -1.878742, 0.374429], "properties": {}}, {"name": "H", "species": [{"element": "H", "occu": 1}], "xyz": [0.546861, -1.216175, -1.27918], "properties": {}}, {"name": "H", "species": [{"element": "H", "occu": 1}], "xyz": [0.734479, -3.54833, -2.196266], "properties": {}}, {"name": "H", "species": [{"element": "H", "occu": 1}], "xyz": [0.638718, -4.206263, -0.553324], "properties": {}}]}, "smiles": "FC(F)(COCCC(F)(F)F)C(F)(F)F", "inchi": "InChI=1S/C6H6F8O/c7-4(8,6(12,13)14)3-15-2-1-5(9,10)11/h1-3H2", "formula_alphabetical": "C6 F8 H6 O1", "chemsys": "C-F-H-O", "energy": -1106.26889409, "esp": {"1": ["F", -0.174084], "2": ["F", -0.171684], "3": ["F", -0.139599], "4": ["F", -0.173719], "5": ["F", -0.17253], "6": ["F", -0.221221], "7": ["F", -0.220522], "8": ["F", -0.212883], "9": ["O", -0.310686], "10": ["C", 0.283215], "11": ["C", 0.022005], "12": ["C", 0.203251], "13": ["C", -0.379684], "14": ["C", 0.469176], "15": ["C", 0.637871], "16": ["H", 0.079507], "17": ["H", 0.080171], "18": ["H", 0.045509], "19": ["H", 0.042458], "20": ["H", 0.157002], "21": ["H", 0.156447]}, "dipole_moment": {"X": -0.6326, "Y": 1.1909, "Z": 0.4444, "Tot": 1.4198}, "functional": "B3LYP", "basis": "6-31+G*", "phase": "gas", "tag": "lis", "state": "successful", "wall_time (s)": 12.660602796007879, "version": "0.0.1", "gauss_version": "ES64L-G16RevC.01", "last_updated": "2021-09-14 22:28:17.637000", "polarizability": 82.21, "fluorinated-solvent": "88850896", "run_ids": ["614121e6eaa383ebfcfc1046", "614121faa8bc91f14d1a5926"]}