{"_id": "61412dc5f1f91d17adb5eeec", "molecule": {"@module": "pymatgen.core.structure", "@class": "Molecule", "charge": 0, "spin_multiplicity": 1, "sites": [{"name": "F", "species": [{"element": "F", "occu": 1}], "xyz": [2.605272, 3.402139, 0.795859], "properties": {}}, {"name": "F", "species": [{"element": "F", "occu": 1}], "xyz": [0.794358, 2.197134, 0.99752], "properties": {}}, {"name": "F", "species": [{"element": "F", "occu": 1}], "xyz": [0.992711, 1.057737, -4.022273], "properties": {}}, {"name": "F", "species": [{"element": "F", "occu": 1}], "xyz": [2.802272, 2.261484, -4.225251], "properties": {}}, {"name": "F", "species": [{"element": "F", "occu": 1}], "xyz": [2.855928, 0.125349, -4.678183], "properties": {}}, {"name": "F", "species": [{"element": "F", "occu": 1}], "xyz": [2.333308, 2.250031, 3.305257], "properties": {}}, {"name": "O", "species": [{"element": "O", "occu": 1}], "xyz": [2.561465, 1.335724, -0.113006], "properties": {}}, {"name": "C", "species": [{"element": "C", "occu": 1}], "xyz": [2.703167, 0.739568, -2.396963], "properties": {}}, {"name": "C", "species": [{"element": "C", "occu": 1}], "xyz": [2.130303, 1.764377, -1.425647], "properties": {}}, {"name": "C", "species": [{"element": "C", "occu": 1}], "xyz": [2.166031, 2.105424, 0.93518], "properties": {}}, {"name": "C", "species": [{"element": "C", "occu": 1}], "xyz": [2.337687, 1.047051, -3.832163], "properties": {}}, {"name": "C", "species": [{"element": "C", "occu": 1}], "xyz": [2.719198, 1.488107, 2.214128], "properties": {}}, {"name": "H", "species": [{"element": "H", "occu": 1}], "xyz": [3.794842, 0.718301, -2.327824], "properties": {}}, {"name": "H", "species": [{"element": "H", "occu": 1}], "xyz": [2.324308, -0.259786, -2.162993], "properties": {}}, {"name": "H", "species": [{"element": "H", "occu": 1}], "xyz": [1.03745, 1.782987, -1.461694], "properties": {}}, {"name": "H", "species": [{"element": "H", "occu": 1}], "xyz": [2.517982, 2.76702, -1.626601], "properties": {}}, {"name": "H", "species": [{"element": "H", "occu": 1}], "xyz": [2.318373, 0.476938, 2.324965], "properties": {}}, {"name": "H", "species": [{"element": "H", "occu": 1}], "xyz": [3.811014, 1.470584, 2.158999], "properties": {}}]}, "smiles": "FC(F)(OCCC(F)(F)F)CF", "inchi": "InChI=1S/C5H6F6O/c6-3-5(10,11)12-2-1-4(7,8)9/h1-3H2", "formula_alphabetical": "C5 F6 H6 O1", "chemsys": "C-F-H-O", "energy": -868.475596887, "esp": {"1": ["F", -0.230821], "2": ["F", -0.232681], "3": ["F", -0.195081], "4": ["F", -0.194215], "5": ["F", -0.188148], "6": ["F", -0.233785], "7": ["O", -0.514468], "8": ["C", -0.384469], "9": ["C", 0.415768], "10": ["C", 0.597591], "11": ["C", 0.53153], "12": ["C", 0.062151], "13": ["H", 0.162576], "14": ["H", 0.163395], "15": ["H", 0.019502], "16": ["H", 0.016643], "17": ["H", 0.101229], "18": ["H", 0.103283]}, "dipole_moment": {"X": 1.503, "Y": -2.2463, "Z": 0.0539, "Tot": 2.7033}, "functional": "B3LYP", "basis": "6-31+G*", "phase": "gas", "tag": "lis", "state": "successful", "wall_time (s)": 8.940357525949366, "version": "0.0.1", "gauss_version": "ES64L-G16RevC.01", "last_updated": "2021-09-14 23:18:29.026000", "polarizability": 68.27, "fluorinated-solvent": "124083951", "run_ids": ["61412da420e327eecf539bea", "61412dbed37804b399b1af17"]}