{"_id": "61412d0049c5923b306ed0cf", "molecule": {"@module": "pymatgen.core.structure", "@class": "Molecule", "charge": 0, "spin_multiplicity": 1, "sites": [{"name": "F", "species": [{"element": "F", "occu": 1}], "xyz": [3.04072, -1.107969, -0.669146], "properties": {}}, {"name": "F", "species": [{"element": "F", "occu": 1}], "xyz": [2.911379, -0.123613, 1.30822], "properties": {}}, {"name": "F", "species": [{"element": "F", "occu": 1}], "xyz": [2.234478, 3.687245, -1.76612], "properties": {}}, {"name": "F", "species": [{"element": "F", "occu": 1}], "xyz": [1.779573, 4.412574, 0.245377], "properties": {}}, {"name": "F", "species": [{"element": "F", "occu": 1}], "xyz": [3.817419, 3.823041, -0.281136], "properties": {}}, {"name": "O", "species": [{"element": "O", "occu": 1}], "xyz": [2.194127, 2.291127, -0.003728], "properties": {}}, {"name": "C", "species": [{"element": "C", "occu": 1}], "xyz": [2.410077, -0.086079, 0.023744], "properties": {}}, {"name": "C", "species": [{"element": "C", "occu": 1}], "xyz": [2.881566, 1.200167, -0.644781], "properties": {}}, {"name": "C", "species": [{"element": "C", "occu": 1}], "xyz": [0.921466, -0.330619, 0.056042], "properties": {}}, {"name": "C", "species": [{"element": "C", "occu": 1}], "xyz": [2.503333, 3.524509, -0.442522], "properties": {}}, {"name": "H", "species": [{"element": "H", "occu": 1}], "xyz": [3.96226, 1.296352, -0.50957], "properties": {}}, {"name": "H", "species": [{"element": "H", "occu": 1}], "xyz": [2.630619, 1.171187, -1.708973], "properties": {}}, {"name": "H", "species": [{"element": "H", "occu": 1}], "xyz": [0.523945, -0.351241, -0.962835], "properties": {}}, {"name": "H", "species": [{"element": "H", "occu": 1}], "xyz": [0.733271, -1.29342, 0.538328], "properties": {}}, {"name": "H", "species": [{"element": "H", "occu": 1}], "xyz": [0.429228, 0.464909, 0.620213], "properties": {}}]}, "smiles": "FC(F)(COC(F)(F)F)C", "inchi": "InChI=1S/C4H5F5O/c1-3(5,6)2-10-4(7,8)9/h2H2,1H3", "formula_alphabetical": "C4 F5 H5 O1", "chemsys": "C-F-H-O", "energy": -729.922289915, "esp": {"1": ["F", -0.300589], "2": ["F", -0.266412], "3": ["F", -0.208831], "4": ["F", -0.183376], "5": ["F", -0.198638], "6": ["O", -0.319382], "7": ["C", 0.672755], "8": ["C", -0.141599], "9": ["C", -0.425801], "10": ["C", 0.692308], "11": ["H", 0.14198], "12": ["H", 0.128995], "13": ["H", 0.132759], "14": ["H", 0.145305], "15": ["H", 0.130528]}, "dipole_moment": {"X": -1.2201, "Y": -0.913, "Z": -1.1822, "Tot": 1.9287}, "functional": "B3LYP", "basis": "6-31+G*", "phase": "gas", "tag": "lis", "state": "successful", "wall_time (s)": 6.899145398987457, "version": "0.0.1", "gauss_version": "ES64L-G16RevC.01", "last_updated": "2021-09-14 23:15:12.367000", "polarizability": 56.13, "fluorinated-solvent": "90262442", "run_ids": ["61412cdf347d63bf482a1310", "61412cf9d114b6009dbf285d"]}