{"_id": "613a4d00fd72a0b8dddfd30d", "molecule": {"@module": "pymatgen.core.structure", "@class": "Molecule", "charge": 0, "spin_multiplicity": 1, "sites": [{"name": "F", "species": [{"element": "F", "occu": 1}], "xyz": [3.251195, -3.041745, 1.24679], "properties": {}}, {"name": "F", "species": [{"element": "F", "occu": 1}], "xyz": [1.483657, -2.132272, 0.34684], "properties": {}}, {"name": "F", "species": [{"element": "F", "occu": 1}], "xyz": [0.494491, 3.928909, 1.198678], "properties": {}}, {"name": "F", "species": [{"element": "F", "occu": 1}], "xyz": [0.556283, 2.335346, -0.290552], "properties": {}}, {"name": "F", "species": [{"element": "F", "occu": 1}], "xyz": [3.243512, -3.275911, -1.422209], "properties": {}}, {"name": "F", "species": [{"element": "F", "occu": 1}], "xyz": [2.897168, -1.117597, -1.707271], "properties": {}}, {"name": "F", "species": [{"element": "F", "occu": 1}], "xyz": [-1.95788, 3.16154, 0.442886], "properties": {}}, {"name": "F", "species": [{"element": "F", "occu": 1}], "xyz": [-1.517789, 1.036266, 0.828833], "properties": {}}, {"name": "F", "species": [{"element": "F", "occu": 1}], "xyz": [5.469311, -2.061911, -2.200314], "properties": {}}, {"name": "F", "species": [{"element": "F", "occu": 1}], "xyz": [5.320188, -0.526251, -0.663687], "properties": {}}, {"name": "F", "species": [{"element": "F", "occu": 1}], "xyz": [5.662109, -2.606856, -0.096203], "properties": {}}, {"name": "F", "species": [{"element": "F", "occu": 1}], "xyz": [-3.121739, 2.354492, 2.684662], "properties": {}}, {"name": "F", "species": [{"element": "F", "occu": 1}], "xyz": [-1.28424, 1.499927, 3.481545], "properties": {}}, {"name": "F", "species": [{"element": "F", "occu": 1}], "xyz": [-1.446595, 3.657973, 3.190901], "properties": {}}, {"name": "O", "species": [{"element": "O", "occu": 1}], "xyz": [3.148507, -0.796875, 1.07614], "properties": {}}, {"name": "O", "species": [{"element": "O", "occu": 1}], "xyz": [0.973851, 1.830958, 1.867784], "properties": {}}, {"name": "C", "species": [{"element": "C", "occu": 1}], "xyz": [2.982791, 0.894359, 2.751687], "properties": {}}, {"name": "C", "species": [{"element": "C", "occu": 1}], "xyz": [2.587827, -0.530016, 2.394901], "properties": {}}, {"name": "C", "species": [{"element": "C", "occu": 1}], "xyz": [2.425873, 1.929756, 1.787345], "properties": {}}, {"name": "C", "species": [{"element": "C", "occu": 1}], "xyz": [2.833668, -1.968196, 0.502883], "properties": {}}, {"name": "C", "species": [{"element": "C", "occu": 1}], "xyz": [0.260737, 2.589399, 1.021637], "properties": {}}, {"name": "C", "species": [{"element": "C", "occu": 1}], "xyz": [3.483714, -2.045016, -0.910659], "properties": {}}, {"name": "C", "species": [{"element": "C", "occu": 1}], "xyz": [-1.257492, 2.306469, 1.225695], "properties": {}}, {"name": "C", "species": [{"element": "C", "occu": 1}], "xyz": [5.023234, -1.801326, -0.960904], "properties": {}}, {"name": "C", "species": [{"element": "C", "occu": 1}], "xyz": [-1.783089, 2.459389, 2.68596], "properties": {}}, {"name": "H", "species": [{"element": "H", "occu": 1}], "xyz": [2.625417, 1.106038, 3.766582], "properties": {}}, {"name": "H", "species": [{"element": "H", "occu": 1}], "xyz": [4.075762, 0.983296, 2.757924], "properties": {}}, {"name": "H", "species": [{"element": "H", "occu": 1}], "xyz": [1.501939, -0.643695, 2.34631], "properties": {}}, {"name": "H", "species": [{"element": "H", "occu": 1}], "xyz": [3.005697, -1.249583, 3.104824], "properties": {}}, {"name": "H", "species": [{"element": "H", "occu": 1}], "xyz": [2.724253, 2.942436, 2.073434], "properties": {}}, {"name": "H", "species": [{"element": "H", "occu": 1}], "xyz": [2.736758, 1.727159, 0.759359], "properties": {}}]}, "smiles": "FC(F)(OCCCOC(F)(F)C(F)(F)C(F)(F)F)C(F)(F)C(F)(F)F", "inchi": "InChI=1S/C9H6F14O2/c10-4(11,6(14,15)16)8(20,21)24-2-1-3-25-9(22,23)5(12,13)7(17,18)19/h1-3H2", "formula_alphabetical": "C9 F14 H6 O2", "chemsys": "C-F-H-O", "energy": -1894.88733593, "esp": {"1": ["F", -0.184311], "2": ["F", -0.151997], "3": ["F", -0.175425], "4": ["F", -0.141669], "5": ["F", -0.112408], "6": ["F", -0.111213], "7": ["F", -0.114484], "8": ["F", -0.115291], "9": ["F", -0.148356], "10": ["F", -0.166341], "11": ["F", -0.155172], "12": ["F", -0.138508], "13": ["F", -0.156481], "14": ["F", -0.144862], "15": ["O", -0.275312], "16": ["O", -0.244033], "17": ["C", -0.273469], "18": ["C", 0.181307], "19": ["C", 0.145843], "20": ["C", 0.393426], "21": ["C", 0.341808], "22": ["C", 0.130653], "23": ["C", 0.165827], "24": ["C", 0.505948], "25": ["C", 0.460237], "26": ["H", 0.110583], "27": ["H", 0.111491], "28": ["H", 0.050322], "29": ["H", 0.070195], "30": ["H", 0.080081], "31": ["H", 0.061609]}, "dipole_moment": {"X": 2.3238, "Y": 0.9467, "Z": 3.2221, "Tot": 4.0839}, "functional": "B3LYP", "basis": "6-31+G*", "phase": "gas", "tag": "lis", "state": "successful", "wall_time (s)": 38.186067253001966, "version": "0.0.1", "gauss_version": "ES64L-G16RevC.01", "last_updated": "2021-09-09 18:05:52.307000", "polarizability": 124.91, "fluorinated-solvent": "22061862", "run_ids": ["613a49d16d21df1731dfe082", "613a4b9d6ddb64f54d4b38ae"]}