{"_id": "6141110191ae917641abdd52", "molecule": {"@module": "pymatgen.core.structure", "@class": "Molecule", "charge": 0, "spin_multiplicity": 1, "sites": [{"name": "F", "species": [{"element": "F", "occu": 1}], "xyz": [4.393971, -1.37182, 0.157501], "properties": {}}, {"name": "F", "species": [{"element": "F", "occu": 1}], "xyz": [5.000565, 0.741669, 0.409506], "properties": {}}, {"name": "F", "species": [{"element": "F", "occu": 1}], "xyz": [3.661101, 1.28742, 3.299451], "properties": {}}, {"name": "O", "species": [{"element": "O", "occu": 1}], "xyz": [2.415552, -1.028066, 2.105176], "properties": {}}, {"name": "C", "species": [{"element": "C", "occu": 1}], "xyz": [2.945404, 0.055865, 1.371745], "properties": {}}, {"name": "C", "species": [{"element": "C", "occu": 1}], "xyz": [1.026001, -1.285904, 1.888843], "properties": {}}, {"name": "C", "species": [{"element": "C", "occu": 1}], "xyz": [0.591089, -2.39069, 2.841855], "properties": {}}, {"name": "C", "species": [{"element": "C", "occu": 1}], "xyz": [4.387397, -0.320835, 1.039628], "properties": {}}, {"name": "C", "species": [{"element": "C", "occu": 1}], "xyz": [2.863438, 1.365738, 2.1481], "properties": {}}, {"name": "C", "species": [{"element": "C", "occu": 1}], "xyz": [0.698828, -1.98634, 4.316474], "properties": {}}, {"name": "H", "species": [{"element": "H", "occu": 1}], "xyz": [2.420006, 0.189552, 0.411356], "properties": {}}, {"name": "H", "species": [{"element": "H", "occu": 1}], "xyz": [0.437386, -0.371721, 2.073985], "properties": {}}, {"name": "H", "species": [{"element": "H", "occu": 1}], "xyz": [0.871903, -1.584659, 0.83986], "properties": {}}, {"name": "H", "species": [{"element": "H", "occu": 1}], "xyz": [-0.445262, -2.658921, 2.594463], "properties": {}}, {"name": "H", "species": [{"element": "H", "occu": 1}], "xyz": [1.20669, -3.277901, 2.645298], "properties": {}}, {"name": "H", "species": [{"element": "H", "occu": 1}], "xyz": [4.978967, -0.597715, 1.914425], "properties": {}}, {"name": "H", "species": [{"element": "H", "occu": 1}], "xyz": [3.22679, 2.204708, 1.546816], "properties": {}}, {"name": "H", "species": [{"element": "H", "occu": 1}], "xyz": [1.834547, 1.551648, 2.472432], "properties": {}}, {"name": "H", "species": [{"element": "H", "occu": 1}], "xyz": [0.063554, -1.117241, 4.533218], "properties": {}}, {"name": "H", "species": [{"element": "H", "occu": 1}], "xyz": [0.381209, -2.804873, 4.972568], "properties": {}}, {"name": "H", "species": [{"element": "H", "occu": 1}], "xyz": [1.729663, -1.721347, 4.57201], "properties": {}}]}, "smiles": "FC(F)[C@@H](OCCC)CF", "inchi": "InChI=1S/C6H11F3O/c1-2-3-10-5(4-7)6(8)9/h5-6H,2-4H2,1H3/t5-/m0/s1", "formula_alphabetical": "C6 F3 H11 O1", "chemsys": "C-F-H-O", "energy": -610.026906355, "esp": {"1": ["F", -0.245469], "2": ["F", -0.251258], "3": ["F", -0.243767], "4": ["O", -0.390367], "5": ["C", 0.105802], "6": ["C", 0.0974], "7": ["C", 0.138732], "8": ["C", 0.407136], "9": ["C", 0.040828], "10": ["C", -0.149474], "11": ["H", 0.073663], "12": ["H", 0.017206], "13": ["H", 0.030322], "14": ["H", -0.026104], "15": ["H", 0.001712], "16": ["H", 0.091548], "17": ["H", 0.075618], "18": ["H", 0.106197], "19": ["H", 0.041931], "20": ["H", 0.029932], "21": ["H", 0.048413]}, "dipole_moment": {"X": -3.1478, "Y": 0.3997, "Z": -0.1862, "Tot": 3.1786}, "functional": "B3LYP", "basis": "6-31+G*", "phase": "gas", "tag": "lis", "state": "successful", "wall_time (s)": 9.785125724971294, "version": "0.0.1", "gauss_version": "ES64L-G16RevC.01", "last_updated": "2021-09-14 21:15:45.153000", "polarizability": 78.01, "fluorinated-solvent": "57160859", "run_ids": ["614110af10ee73d327a26c71", "614110d6998ef5217abf12e0"]}