{"_id": "61410ec3c0b2e502b3096af0", "molecule": {"@module": "pymatgen.core.structure", "@class": "Molecule", "charge": 0, "spin_multiplicity": 1, "sites": [{"name": "F", "species": [{"element": "F", "occu": 1}], "xyz": [3.223087, -0.590299, -0.272128], "properties": {}}, {"name": "F", "species": [{"element": "F", "occu": 1}], "xyz": [1.232834, -0.551903, 0.623798], "properties": {}}, {"name": "F", "species": [{"element": "F", "occu": 1}], "xyz": [0.81559, -1.296565, -4.958769], "properties": {}}, {"name": "F", "species": [{"element": "F", "occu": 1}], "xyz": [2.167252, 0.367384, -4.533716], "properties": {}}, {"name": "F", "species": [{"element": "F", "occu": 1}], "xyz": [1.359044, 1.574614, 2.335737], "properties": {}}, {"name": "F", "species": [{"element": "F", "occu": 1}], "xyz": [3.327869, 0.631568, 2.207893], "properties": {}}, {"name": "O", "species": [{"element": "O", "occu": 1}], "xyz": [1.163996, -0.903299, -2.189577], "properties": {}}, {"name": "O", "species": [{"element": "O", "occu": 1}], "xyz": [2.345882, 1.40886, 0.312228], "properties": {}}, {"name": "O", "species": [{"element": "O", "occu": 1}], "xyz": [3.038793, -1.617759, -5.178143], "properties": {}}, {"name": "C", "species": [{"element": "C", "occu": 1}], "xyz": [1.453866, 0.33628, -1.580608], "properties": {}}, {"name": "C", "species": [{"element": "C", "occu": 1}], "xyz": [2.065182, 0.145702, -0.191577], "properties": {}}, {"name": "C", "species": [{"element": "C", "occu": 1}], "xyz": [2.17627, -1.472633, -2.997086], "properties": {}}, {"name": "C", "species": [{"element": "C", "occu": 1}], "xyz": [2.066236, -1.019983, -4.45214], "properties": {}}, {"name": "C", "species": [{"element": "C", "occu": 1}], "xyz": [2.558491, 1.628048, 1.673855], "properties": {}}, {"name": "C", "species": [{"element": "C", "occu": 1}], "xyz": [3.208105, 2.974564, 1.867112], "properties": {}}, {"name": "C", "species": [{"element": "C", "occu": 1}], "xyz": [3.060382, -1.327159, -6.591973], "properties": {}}, {"name": "H", "species": [{"element": "H", "occu": 1}], "xyz": [0.507298, 0.867688, -1.453489], "properties": {}}, {"name": "H", "species": [{"element": "H", "occu": 1}], "xyz": [2.132071, 0.9556, -2.176045], "properties": {}}, {"name": "H", "species": [{"element": "H", "occu": 1}], "xyz": [3.184001, -1.240359, -2.638858], "properties": {}}, {"name": "H", "species": [{"element": "H", "occu": 1}], "xyz": [2.034269, -2.555606, -2.975223], "properties": {}}, {"name": "H", "species": [{"element": "H", "occu": 1}], "xyz": [4.182539, 2.981951, 1.373647], "properties": {}}, {"name": "H", "species": [{"element": "H", "occu": 1}], "xyz": [2.571289, 3.750854, 1.436831], "properties": {}}, {"name": "H", "species": [{"element": "H", "occu": 1}], "xyz": [3.332965, 3.152336, 2.937675], "properties": {}}, {"name": "H", "species": [{"element": "H", "occu": 1}], "xyz": [2.136929, -1.671469, -7.065892], "properties": {}}, {"name": "H", "species": [{"element": "H", "occu": 1}], "xyz": [3.196791, -0.254746, -6.758619], "properties": {}}, {"name": "H", "species": [{"element": "H", "occu": 1}], "xyz": [3.914062, -1.880282, -6.984061], "properties": {}}]}, "smiles": "FC(F)(OC(F)(F)C)COCC(F)(F)OC", "inchi": "InChI=1S/C7H10F6O3/c1-5(8,9)16-7(12,13)4-15-3-6(10,11)14-2/h3-4H2,1-2H3", "formula_alphabetical": "C7 F6 H10 O3", "chemsys": "C-F-H-O", "energy": -1097.54360223, "esp": {"1": ["F", -0.233796], "2": ["F", -0.238716], "3": ["F", -0.243343], "4": ["F", -0.24676], "5": ["F", -0.263527], "6": ["F", -0.263962], "7": ["O", -0.329734], "8": ["O", -0.546463], "9": ["O", -0.411455], "10": ["C", -0.10434], "11": ["C", 0.766277], "12": ["C", -0.099058], "13": ["C", 0.687066], "14": ["C", 0.831364], "15": ["C", -0.554667], "16": ["C", -0.04047], "17": ["H", 0.136566], "18": ["H", 0.117235], "19": ["H", 0.097371], "20": ["H", 0.137301], "21": ["H", 0.177542], "22": ["H", 0.176148], "23": ["H", 0.166475], "24": ["H", 0.08722], "25": ["H", 0.082157], "26": ["H", 0.11357]}, "dipole_moment": {"X": 2.2907, "Y": 2.2712, "Z": -2.3178, "Tot": 3.9721}, "functional": "B3LYP", "basis": "6-31+G*", "phase": "gas", "tag": "lis", "state": "successful", "wall_time (s)": 17.727597250952385, "version": "0.0.1", "gauss_version": "ES64L-G16RevC.01", "last_updated": "2021-09-14 21:06:11.120000", "polarizability": 100.62, "fluorinated-solvent": "90376976", "run_ids": ["61410e5839c645e3728915e7", "61410e9eb55c7a2436e2cfe8"]}