{"_id": "61410e9513657d1e1652f1d8", "molecule": {"@module": "pymatgen.core.structure", "@class": "Molecule", "charge": 0, "spin_multiplicity": 1, "sites": [{"name": "F", "species": [{"element": "F", "occu": 1}], "xyz": [0.796988, -4.681734, 2.998049], "properties": {}}, {"name": "F", "species": [{"element": "F", "occu": 1}], "xyz": [0.545058, -3.218723, 1.401774], "properties": {}}, {"name": "F", "species": [{"element": "F", "occu": 1}], "xyz": [-0.900407, -3.303784, 3.040851], "properties": {}}, {"name": "F", "species": [{"element": "F", "occu": 1}], "xyz": [3.510991, 1.307615, -0.970692], "properties": {}}, {"name": "F", "species": [{"element": "F", "occu": 1}], "xyz": [5.355076, 1.704434, -2.077102], "properties": {}}, {"name": "F", "species": [{"element": "F", "occu": 1}], "xyz": [4.715203, -0.354111, -1.705022], "properties": {}}, {"name": "O", "species": [{"element": "O", "occu": 1}], "xyz": [2.60421, -2.507234, 3.382461], "properties": {}}, {"name": "O", "species": [{"element": "O", "occu": 1}], "xyz": [5.007625, 0.151511, 1.159249], "properties": {}}, {"name": "C", "species": [{"element": "C", "occu": 1}], "xyz": [4.668661, -1.874124, 2.381001], "properties": {}}, {"name": "C", "species": [{"element": "C", "occu": 1}], "xyz": [3.15271, -1.838025, 2.237637], "properties": {}}, {"name": "C", "species": [{"element": "C", "occu": 1}], "xyz": [5.374985, -1.237653, 1.194008], "properties": {}}, {"name": "C", "species": [{"element": "C", "occu": 1}], "xyz": [1.217863, -2.393578, 3.554868], "properties": {}}, {"name": "C", "species": [{"element": "C", "occu": 1}], "xyz": [5.591321, 0.913636, 0.136475], "properties": {}}, {"name": "C", "species": [{"element": "C", "occu": 1}], "xyz": [0.420199, -3.411483, 2.740308], "properties": {}}, {"name": "C", "species": [{"element": "C", "occu": 1}], "xyz": [4.779913, 0.88731, -1.157943], "properties": {}}, {"name": "H", "species": [{"element": "H", "occu": 1}], "xyz": [4.960499, -1.360297, 3.304305], "properties": {}}, {"name": "H", "species": [{"element": "H", "occu": 1}], "xyz": [4.995002, -2.918225, 2.46616], "properties": {}}, {"name": "H", "species": [{"element": "H", "occu": 1}], "xyz": [2.840133, -2.341451, 1.312983], "properties": {}}, {"name": "H", "species": [{"element": "H", "occu": 1}], "xyz": [2.791209, -0.800931, 2.204075], "properties": {}}, {"name": "H", "species": [{"element": "H", "occu": 1}], "xyz": [6.466892, -1.321472, 1.305238], "properties": {}}, {"name": "H", "species": [{"element": "H", "occu": 1}], "xyz": [5.085553, -1.730575, 0.256622], "properties": {}}, {"name": "H", "species": [{"element": "H", "occu": 1}], "xyz": [0.839602, -1.394283, 3.293342], "properties": {}}, {"name": "H", "species": [{"element": "H", "occu": 1}], "xyz": [0.999393, -2.592408, 4.608222], "properties": {}}, {"name": "H", "species": [{"element": "H", "occu": 1}], "xyz": [5.620267, 1.955079, 0.470629], "properties": {}}, {"name": "H", "species": [{"element": "H", "occu": 1}], "xyz": [6.613696, 0.588285, -0.104449], "properties": {}}]}, "smiles": "FC(F)(F)COCCCOCC(F)(F)F", "inchi": "InChI=1S/C7H10F6O2/c8-6(9,10)4-14-2-1-3-15-5-7(11,12)13/h1-5H2", "formula_alphabetical": "C7 F6 H10 O2", "chemsys": "C-F-H-O", "energy": -1022.30863368, "esp": {"1": ["F", -0.186436], "2": ["F", -0.207618], "3": ["F", -0.229382], "4": ["F", -0.197728], "5": ["F", -0.224345], "6": ["F", -0.19515], "7": ["O", -0.400632], "8": ["O", -0.332493], "9": ["C", -0.230266], "10": ["C", 0.365529], "11": ["C", 0.202493], "12": ["C", -0.138112], "13": ["C", -0.162606], "14": ["C", 0.587829], "15": ["C", 0.595355], "16": ["H", 0.084538], "17": ["H", 0.068755], "18": ["H", 0.012706], "19": ["H", -0.010006], "20": ["H", 0.041194], "21": ["H", 0.014079], "22": ["H", 0.115448], "23": ["H", 0.155465], "24": ["H", 0.156931], "25": ["H", 0.114453]}, "dipole_moment": {"X": 2.8322, "Y": 1.4134, "Z": 1.3319, "Tot": 3.4341}, "functional": "B3LYP", "basis": "6-31+G*", "phase": "gas", "tag": "lis", "state": "successful", "wall_time (s)": 14.188048196025193, "version": "0.0.1", "gauss_version": "ES64L-G16RevC.01", "last_updated": "2021-09-14 21:05:25.252000", "polarizability": 96.98, "fluorinated-solvent": "57255720", "run_ids": ["61410e29242f41f070015d42", "61410e6cc1de0d8cb27fdef4"]}