{"_id": "61411b38f41042bfc6eddfde", "molecule": {"@module": "pymatgen.core.structure", "@class": "Molecule", "charge": 0, "spin_multiplicity": 1, "sites": [{"name": "F", "species": [{"element": "F", "occu": 1}], "xyz": [1.438957, 0.372145, -0.665629], "properties": {}}, {"name": "F", "species": [{"element": "F", "occu": 1}], "xyz": [3.15037, 1.407849, 0.280885], "properties": {}}, {"name": "F", "species": [{"element": "F", "occu": 1}], "xyz": [3.634836, -3.165821, 1.908816], "properties": {}}, {"name": "F", "species": [{"element": "F", "occu": 1}], "xyz": [2.150446, -1.715065, 3.795428], "properties": {}}, {"name": "O", "species": [{"element": "O", "occu": 1}], "xyz": [2.033506, -1.938207, 0.836683], "properties": {}}, {"name": "C", "species": [{"element": "C", "occu": 1}], "xyz": [2.683574, 0.157091, -0.100203], "properties": {}}, {"name": "C", "species": [{"element": "C", "occu": 1}], "xyz": [2.505772, -0.630661, 1.191042], "properties": {}}, {"name": "C", "species": [{"element": "C", "occu": 1}], "xyz": [2.25428, -2.964047, 1.731351], "properties": {}}, {"name": "C", "species": [{"element": "C", "occu": 1}], "xyz": [3.606419, -0.435787, -1.136354], "properties": {}}, {"name": "C", "species": [{"element": "C", "occu": 1}], "xyz": [1.621169, -2.810938, 3.108847], "properties": {}}, {"name": "H", "species": [{"element": "H", "occu": 1}], "xyz": [3.466824, -0.689268, 1.707762], "properties": {}}, {"name": "H", "species": [{"element": "H", "occu": 1}], "xyz": [1.780045, -0.111694, 1.824132], "properties": {}}, {"name": "H", "species": [{"element": "H", "occu": 1}], "xyz": [1.855875, -3.86571, 1.253155], "properties": {}}, {"name": "H", "species": [{"element": "H", "occu": 1}], "xyz": [3.223116, -1.408274, -1.453014], "properties": {}}, {"name": "H", "species": [{"element": "H", "occu": 1}], "xyz": [3.657978, 0.23884, -1.99516], "properties": {}}, {"name": "H", "species": [{"element": "H", "occu": 1}], "xyz": [4.606843, -0.564223, -0.713006], "properties": {}}, {"name": "H", "species": [{"element": "H", "occu": 1}], "xyz": [0.542542, -2.655476, 2.998158], "properties": {}}, {"name": "H", "species": [{"element": "H", "occu": 1}], "xyz": [1.818229, -3.708237, 3.703917], "properties": {}}]}, "smiles": "FC(F)(CO[C@@H](F)CF)C", "inchi": "InChI=1S/C5H8F4O/c1-5(8,9)3-10-4(7)2-6/h4H,2-3H2,1H3/t4-/m1/s1", "formula_alphabetical": "C5 F4 H8 O1", "chemsys": "C-F-H-O", "energy": -669.967892504, "esp": {"1": ["F", -0.281636], "2": ["F", -0.308217], "3": ["F", -0.25902], "4": ["F", -0.23136], "5": ["O", -0.363369], "6": ["C", 0.694838], "7": ["C", -0.167103], "8": ["C", 0.387972], "9": ["C", -0.477592], "10": ["C", 0.053098], "11": ["H", 0.138502], "12": ["H", 0.145776], "13": ["H", 0.052533], "14": ["H", 0.146539], "15": ["H", 0.14964], "16": ["H", 0.146535], "17": ["H", 0.091494], "18": ["H", 0.081369]}, "dipole_moment": {"X": -0.6886, "Y": -2.8854, "Z": 0.2906, "Tot": 2.9806}, "functional": "B3LYP", "basis": "6-31+G*", "phase": "gas", "tag": "lis", "state": "successful", "wall_time (s)": 8.70811441692058, "version": "0.0.1", "gauss_version": "ES64L-G16RevC.01", "last_updated": "2021-09-14 21:59:20.544000", "polarizability": 66.56, "fluorinated-solvent": "89114468", "run_ids": ["61411b12f1b0eee173b4fb0f", "61411b2a8fd86486ae39ec78"]}