{"_id": "613a532ae88d1e1f7f6d3e3d", "molecule": {"@module": "pymatgen.core.structure", "@class": "Molecule", "charge": 0, "spin_multiplicity": 1, "sites": [{"name": "F", "species": [{"element": "F", "occu": 1}], "xyz": [3.284753, -0.236962, -1.450046], "properties": {}}, {"name": "F", "species": [{"element": "F", "occu": 1}], "xyz": [1.521038, -0.420433, -0.181593], "properties": {}}, {"name": "F", "species": [{"element": "F", "occu": 1}], "xyz": [3.520584, -0.562151, 0.690622], "properties": {}}, {"name": "F", "species": [{"element": "F", "occu": 1}], "xyz": [2.318828, 0.417493, 2.919315], "properties": {}}, {"name": "F", "species": [{"element": "F", "occu": 1}], "xyz": [3.862834, 1.945231, 2.682658], "properties": {}}, {"name": "F", "species": [{"element": "F", "occu": 1}], "xyz": [1.91737, 2.467109, 3.529696], "properties": {}}, {"name": "O", "species": [{"element": "O", "occu": 1}], "xyz": [2.226282, 2.252896, -1.123639], "properties": {}}, {"name": "C", "species": [{"element": "C", "occu": 1}], "xyz": [2.802382, 1.605676, -0.010788], "properties": {}}, {"name": "C", "species": [{"element": "C", "occu": 1}], "xyz": [1.990124, 2.068435, 1.209635], "properties": {}}, {"name": "C", "species": [{"element": "C", "occu": 1}], "xyz": [2.77386, 0.081869, -0.23579], "properties": {}}, {"name": "C", "species": [{"element": "C", "occu": 1}], "xyz": [2.527522, 1.708673, 2.581805], "properties": {}}, {"name": "C", "species": [{"element": "C", "occu": 1}], "xyz": [3.147295, 2.721544, -2.125169], "properties": {}}, {"name": "C", "species": [{"element": "C", "occu": 1}], "xyz": [2.331733, 3.38424, -3.220205], "properties": {}}, {"name": "H", "species": [{"element": "H", "occu": 1}], "xyz": [3.85908, 1.878054, 0.114312], "properties": {}}, {"name": "H", "species": [{"element": "H", "occu": 1}], "xyz": [1.963015, 3.160035, 1.160952], "properties": {}}, {"name": "H", "species": [{"element": "H", "occu": 1}], "xyz": [0.96154, 1.705804, 1.137995], "properties": {}}, {"name": "H", "species": [{"element": "H", "occu": 1}], "xyz": [3.843812, 3.438038, -1.661991], "properties": {}}, {"name": "H", "species": [{"element": "H", "occu": 1}], "xyz": [3.728592, 1.880643, -2.5222], "properties": {}}, {"name": "H", "species": [{"element": "H", "occu": 1}], "xyz": [1.746428, 4.217236, -2.816445], "properties": {}}, {"name": "H", "species": [{"element": "H", "occu": 1}], "xyz": [2.996957, 3.770009, -4.001284], "properties": {}}, {"name": "H", "species": [{"element": "H", "occu": 1}], "xyz": [1.643057, 2.663531, -3.673196], "properties": {}}]}, "smiles": "FC(F)(F)[C@@H](OCC)CC(F)(F)F", "inchi": "InChI=1S/C6H8F6O/c1-2-13-4(6(10,11)12)3-5(7,8)9/h4H,2-3H2,1H3/t4-/m0/s1", "formula_alphabetical": "C6 F6 H8 O1", "chemsys": "C-F-H-O", "energy": -907.7873945, "esp": {"1": ["F", -0.158718], "2": ["F", -0.157584], "3": ["F", -0.183996], "4": ["F", -0.202016], "5": ["F", -0.22325], "6": ["F", -0.228685], "7": ["O", -0.518011], "8": ["C", 0.38712], "9": ["C", -0.367581], "10": ["C", 0.390585], "11": ["C", 0.638908], "12": ["C", 0.433356], "13": ["C", -0.325425], "14": ["H", 0.007773], "15": ["H", 0.159809], "16": ["H", 0.144659], "17": ["H", -0.025595], "18": ["H", -0.04509], "19": ["H", 0.091569], "20": ["H", 0.075478], "21": ["H", 0.106695]}, "dipole_moment": {"X": 0.4921, "Y": 2.719, "Z": -2.3179, "Tot": 3.6066}, "functional": "B3LYP", "basis": "6-31+G*", "phase": "gas", "tag": "lis", "state": "successful", "wall_time (s)": 11.792225126060657, "version": "0.0.1", "gauss_version": "ES64L-G16RevC.01", "last_updated": "2021-09-09 18:32:10.108000", "polarizability": 80.34, "fluorinated-solvent": "53855163", "run_ids": ["613a4abc4f8c55a7fa30f751", "613a531fae5db636afccc0e5"]}