{"_id": "613a540bca2a1badbbb3442f", "molecule": {"@module": "pymatgen.core.structure", "@class": "Molecule", "charge": 0, "spin_multiplicity": 1, "sites": [{"name": "F", "species": [{"element": "F", "occu": 1}], "xyz": [1.065462, -0.166558, 0.228079], "properties": {}}, {"name": "F", "species": [{"element": "F", "occu": 1}], "xyz": [2.794848, -0.379765, 1.603775], "properties": {}}, {"name": "O", "species": [{"element": "O", "occu": 1}], "xyz": [4.21473, -0.607802, -2.619434], "properties": {}}, {"name": "C", "species": [{"element": "C", "occu": 1}], "xyz": [2.318842, -1.832377, -1.821673], "properties": {}}, {"name": "C", "species": [{"element": "C", "occu": 1}], "xyz": [2.792978, -1.694672, -0.365592], "properties": {}}, {"name": "C", "species": [{"element": "C", "occu": 1}], "xyz": [2.802232, -0.714163, -2.742299], "properties": {}}, {"name": "C", "species": [{"element": "C", "occu": 1}], "xyz": [2.435052, -0.372323, 0.270678], "properties": {}}, {"name": "C", "species": [{"element": "C", "occu": 1}], "xyz": [4.827548, 0.338599, -3.492984], "properties": {}}, {"name": "C", "species": [{"element": "C", "occu": 1}], "xyz": [4.610017, 1.790781, -3.067481], "properties": {}}, {"name": "H", "species": [{"element": "H", "occu": 1}], "xyz": [2.679132, -2.793035, -2.208338], "properties": {}}, {"name": "H", "species": [{"element": "H", "occu": 1}], "xyz": [1.222925, -1.855685, -1.856906], "properties": {}}, {"name": "H", "species": [{"element": "H", "occu": 1}], "xyz": [3.882152, -1.792502, -0.316348], "properties": {}}, {"name": "H", "species": [{"element": "H", "occu": 1}], "xyz": [2.352989, -2.486418, 0.251982], "properties": {}}, {"name": "H", "species": [{"element": "H", "occu": 1}], "xyz": [2.528759, -0.942295, -3.786132], "properties": {}}, {"name": "H", "species": [{"element": "H", "occu": 1}], "xyz": [2.313647, 0.236988, -2.478613], "properties": {}}, {"name": "H", "species": [{"element": "H", "occu": 1}], "xyz": [2.907239, 0.50159, -0.186465], "properties": {}}, {"name": "H", "species": [{"element": "H", "occu": 1}], "xyz": [5.894973, 0.095559, -3.469463], "properties": {}}, {"name": "H", "species": [{"element": "H", "occu": 1}], "xyz": [4.46948, 0.178614, -4.523887], "properties": {}}, {"name": "H", "species": [{"element": "H", "occu": 1}], "xyz": [4.953816, 1.9409, -2.037646], "properties": {}}, {"name": "H", "species": [{"element": "H", "occu": 1}], "xyz": [5.179701, 2.462194, -3.721752], "properties": {}}, {"name": "H", "species": [{"element": "H", "occu": 1}], "xyz": [3.556347, 2.085101, -3.127809], "properties": {}}]}, "smiles": "FC(F)CCCOCC", "inchi": "InChI=1S/C6H12F2O/c1-2-9-5-3-4-6(7)8/h6H,2-5H2,1H3", "formula_alphabetical": "C6 F2 H12 O1", "chemsys": "C-F-H-O", "energy": -510.792000786, "esp": {"1": ["F", -0.282726], "2": ["F", -0.303359], "3": ["O", -0.442802], "4": ["C", -0.140186], "5": ["C", -0.071411], "6": ["C", 0.126234], "7": ["C", 0.518107], "8": ["C", 0.284745], "9": ["C", -0.271138], "10": ["H", 0.078491], "11": ["H", 0.050069], "12": ["H", 0.039746], "13": ["H", 0.069652], "14": ["H", 0.046857], "15": ["H", 0.018174], "16": ["H", 0.042823], "17": ["H", 0.023752], "18": ["H", -0.010042], "19": ["H", 0.084774], "20": ["H", 0.061919], "21": ["H", 0.076321]}, "dipole_moment": {"X": 0.8911, "Y": 0.1816, "Z": -3.0721, "Tot": 3.2039}, "functional": "B3LYP", "basis": "6-31+G*", "phase": "gas", "tag": "lis", "state": "successful", "wall_time (s)": 10.243597707012668, "version": "0.0.1", "gauss_version": "ES64L-G16RevC.01", "last_updated": "2021-09-09 18:35:54.759000", "polarizability": 77.08, "fluorinated-solvent": "53969775", "run_ids": ["613a4acd62c009538d270c1d", "613a5406f57f99932a2942b6"]}