{"_id": "61410bc7a6550bee440762ab", "molecule": {"@module": "pymatgen.core.structure", "@class": "Molecule", "charge": 0, "spin_multiplicity": 1, "sites": [{"name": "F", "species": [{"element": "F", "occu": 1}], "xyz": [0.931302, 0.077436, 0.305938], "properties": {}}, {"name": "F", "species": [{"element": "F", "occu": 1}], "xyz": [2.817257, 0.276003, 1.394881], "properties": {}}, {"name": "F", "species": [{"element": "F", "occu": 1}], "xyz": [2.306709, -3.542101, -1.639473], "properties": {}}, {"name": "F", "species": [{"element": "F", "occu": 1}], "xyz": [4.236667, -3.412742, -0.633744], "properties": {}}, {"name": "F", "species": [{"element": "F", "occu": 1}], "xyz": [2.618162, -4.579661, 0.259822], "properties": {}}, {"name": "O", "species": [{"element": "O", "occu": 1}], "xyz": [2.72848, -1.08656, -0.396956], "properties": {}}, {"name": "C", "species": [{"element": "C", "occu": 1}], "xyz": [2.70616, 1.260918, -0.770164], "properties": {}}, {"name": "C", "species": [{"element": "C", "occu": 1}], "xyz": [2.304782, 0.105728, 0.118365], "properties": {}}, {"name": "C", "species": [{"element": "C", "occu": 1}], "xyz": [2.126431, 1.174052, -2.188051], "properties": {}}, {"name": "C", "species": [{"element": "C", "occu": 1}], "xyz": [2.408403, -2.250619, 0.360706], "properties": {}}, {"name": "C", "species": [{"element": "C", "occu": 1}], "xyz": [2.546335, 2.374372, -3.043829], "properties": {}}, {"name": "C", "species": [{"element": "C", "occu": 1}], "xyz": [2.902561, -3.447599, -0.431804], "properties": {}}, {"name": "H", "species": [{"element": "H", "occu": 1}], "xyz": [2.371675, 2.174333, -0.265689], "properties": {}}, {"name": "H", "species": [{"element": "H", "occu": 1}], "xyz": [3.801541, 1.278216, -0.797316], "properties": {}}, {"name": "H", "species": [{"element": "H", "occu": 1}], "xyz": [2.462347, 0.242229, -2.657637], "properties": {}}, {"name": "H", "species": [{"element": "H", "occu": 1}], "xyz": [1.032389, 1.122637, -2.127578], "properties": {}}, {"name": "H", "species": [{"element": "H", "occu": 1}], "xyz": [2.913663, -2.24331, 1.330875], "properties": {}}, {"name": "H", "species": [{"element": "H", "occu": 1}], "xyz": [1.328128, -2.350422, 0.499213], "properties": {}}, {"name": "H", "species": [{"element": "H", "occu": 1}], "xyz": [3.638194, 2.432083, -3.138187], "properties": {}}, {"name": "H", "species": [{"element": "H", "occu": 1}], "xyz": [2.127336, 2.301485, -4.053786], "properties": {}}, {"name": "H", "species": [{"element": "H", "occu": 1}], "xyz": [2.198479, 3.317935, -2.604336], "properties": {}}]}, "smiles": "FC(F)(OCC(F)(F)F)CCC", "inchi": "InChI=1S/C6H9F5O/c1-2-3-6(10,11)12-4-5(7,8)9/h2-4H2,1H3", "formula_alphabetical": "C6 F5 H9 O1", "chemsys": "C-F-H-O", "energy": -808.555113047, "esp": {"1": ["F", -0.234959], "2": ["F", -0.244306], "3": ["F", -0.207335], "4": ["F", -0.210351], "5": ["F", -0.239702], "6": ["O", -0.27232], "7": ["C", -0.367088], "8": ["C", 0.585754], "9": ["C", 0.348082], "10": ["C", -0.285028], "11": ["C", -0.279264], "12": ["C", 0.701343], "13": ["H", 0.122398], "14": ["H", 0.120405], "15": ["H", -0.051046], "16": ["H", -0.040824], "17": ["H", 0.188069], "18": ["H", 0.176932], "19": ["H", 0.066133], "20": ["H", 0.06123], "21": ["H", 0.061877]}, "dipole_moment": {"X": -0.2149, "Y": 1.6736, "Z": -0.2279, "Tot": 1.7027}, "functional": "B3LYP", "basis": "6-31+G*", "phase": "gas", "tag": "lis", "state": "successful", "wall_time (s)": 10.269028585986234, "version": "0.0.1", "gauss_version": "ES64L-G16RevC.01", "last_updated": "2021-09-14 20:53:27.434000", "polarizability": 79.34, "fluorinated-solvent": "88543464", "run_ids": ["61410a6804973bb2187a7730", "61410b181d90825e859250a6"]}