{"_id": "613a54f211a0692b3b6a5ddc", "molecule": {"@module": "pymatgen.core.structure", "@class": "Molecule", "charge": 0, "spin_multiplicity": 1, "sites": [{"name": "F", "species": [{"element": "F", "occu": 1}], "xyz": [3.233163, -1.206997, 0.306554], "properties": {}}, {"name": "F", "species": [{"element": "F", "occu": 1}], "xyz": [1.227867, -0.331331, 0.030736], "properties": {}}, {"name": "F", "species": [{"element": "F", "occu": 1}], "xyz": [2.74312, -0.356446, -2.242796], "properties": {}}, {"name": "F", "species": [{"element": "F", "occu": 1}], "xyz": [2.326499, 1.66591, -1.53349], "properties": {}}, {"name": "F", "species": [{"element": "F", "occu": 1}], "xyz": [4.312804, 0.799619, -1.259828], "properties": {}}, {"name": "O", "species": [{"element": "O", "occu": 1}], "xyz": [2.395909, 0.329556, 2.451304], "properties": {}}, {"name": "C", "species": [{"element": "C", "occu": 1}], "xyz": [2.557195, -0.036826, 0.118572], "properties": {}}, {"name": "C", "species": [{"element": "C", "occu": 1}], "xyz": [2.824431, 0.935186, 1.261723], "properties": {}}, {"name": "C", "species": [{"element": "C", "occu": 1}], "xyz": [2.991266, 0.521987, -1.263209], "properties": {}}, {"name": "C", "species": [{"element": "C", "occu": 1}], "xyz": [2.595927, 1.150028, 3.603786], "properties": {}}, {"name": "C", "species": [{"element": "C", "occu": 1}], "xyz": [2.094882, 0.386206, 4.816635], "properties": {}}, {"name": "H", "species": [{"element": "H", "occu": 1}], "xyz": [3.902824, 1.15725, 1.278686], "properties": {}}, {"name": "H", "species": [{"element": "H", "occu": 1}], "xyz": [2.276769, 1.86778, 1.054668], "properties": {}}, {"name": "H", "species": [{"element": "H", "occu": 1}], "xyz": [3.667412, 1.390308, 3.703858], "properties": {}}, {"name": "H", "species": [{"element": "H", "occu": 1}], "xyz": [2.047458, 2.098641, 3.480728], "properties": {}}, {"name": "H", "species": [{"element": "H", "occu": 1}], "xyz": [2.645478, -0.553262, 4.931528], "properties": {}}, {"name": "H", "species": [{"element": "H", "occu": 1}], "xyz": [2.232337, 0.986419, 5.72351], "properties": {}}, {"name": "H", "species": [{"element": "H", "occu": 1}], "xyz": [1.030509, 0.152801, 4.708996], "properties": {}}]}, "smiles": "FC(F)(COCC)C(F)(F)F", "inchi": "InChI=1S/C5H7F5O/c1-2-11-3-4(6,7)5(8,9)10/h2-3H2,1H3", "formula_alphabetical": "C5 F5 H7 O1", "chemsys": "C-F-H-O", "energy": -769.208735176, "esp": {"1": ["F", -0.162731], "2": ["F", -0.161661], "3": ["F", -0.171633], "4": ["F", -0.198864], "5": ["F", -0.194796], "6": ["O", -0.298089], "7": ["C", 0.22832], "8": ["C", -0.068729], "9": ["C", 0.581871], "10": ["C", 0.282296], "11": ["C", -0.313658], "12": ["H", 0.095705], "13": ["H", 0.1038], "14": ["H", 0.001669], "15": ["H", 0.002361], "16": ["H", 0.096515], "17": ["H", 0.082048], "18": ["H", 0.095576]}, "dipole_moment": {"X": 0.7318, "Y": 2.4305, "Z": 2.3994, "Tot": 3.4928}, "functional": "B3LYP", "basis": "6-31+G*", "phase": "gas", "tag": "lis", "state": "successful", "wall_time (s)": 8.698444397999992, "version": "0.0.1", "gauss_version": "ES64L-G16RevC.01", "last_updated": "2021-09-09 18:39:45.975000", "polarizability": 68.99, "fluorinated-solvent": "19063474", "run_ids": ["613a4ada8f1033889f9ffced", "613a54e0ee39c492050d0c53"]}