{"_id": "61412ec55d218a8c74e9f29d", "molecule": {"@module": "pymatgen.core.structure", "@class": "Molecule", "charge": 0, "spin_multiplicity": 1, "sites": [{"name": "F", "species": [{"element": "F", "occu": 1}], "xyz": [0.883493, -0.102824, 0.018446], "properties": {}}, {"name": "F", "species": [{"element": "F", "occu": 1}], "xyz": [2.581038, 1.095032, 0.709494], "properties": {}}, {"name": "F", "species": [{"element": "F", "occu": 1}], "xyz": [2.419074, -1.04805, -2.112093], "properties": {}}, {"name": "F", "species": [{"element": "F", "occu": 1}], "xyz": [2.288741, 1.15476, -1.992728], "properties": {}}, {"name": "O", "species": [{"element": "O", "occu": 1}], "xyz": [2.783574, -1.151764, 0.634855], "properties": {}}, {"name": "C", "species": [{"element": "C", "occu": 1}], "xyz": [2.253832, -0.064997, 0.037171], "properties": {}}, {"name": "C", "species": [{"element": "C", "occu": 1}], "xyz": [2.805737, 0.045233, -1.397652], "properties": {}}, {"name": "C", "species": [{"element": "C", "occu": 1}], "xyz": [2.329152, -1.436783, 2.006874], "properties": {}}, {"name": "C", "species": [{"element": "C", "occu": 1}], "xyz": [2.835273, -2.62387, 2.636672], "properties": {}}, {"name": "H", "species": [{"element": "H", "occu": 1}], "xyz": [3.897264, 0.109535, -1.394679], "properties": {}}, {"name": "H", "species": [{"element": "H", "occu": 1}], "xyz": [2.460735, -0.542899, 2.633409], "properties": {}}, {"name": "H", "species": [{"element": "H", "occu": 1}], "xyz": [1.234872, -1.630772, 1.995453], "properties": {}}, {"name": "H", "species": [{"element": "H", "occu": 1}], "xyz": [3.417296, -3.210888, 1.900149], "properties": {}}]}, "smiles": "FC(F)(OC[CH])C(F)F", "inchi": "InChI=1S/C4H4F4O/c1-2-9-4(7,8)3(5)6/h1,3H,2H2", "formula_alphabetical": "C4 F4 H4 O1", "chemsys": "C-F-H-O", "energy": -629.302556121, "esp": {"1": ["F", -0.177574], "2": ["F", -0.201214], "3": ["F", -0.211809], "4": ["F", -0.213593], "5": ["O", -0.622431], "6": ["C", 0.345708], "7": ["C", 0.40876], "8": ["C", 1.261834], "9": ["C", -0.799226], "10": ["H", 0.09902], "11": ["H", -0.145646], "12": ["H", -0.083154], "13": ["H", 0.339327]}, "dipole_moment": {"X": 1.3806, "Y": -0.3809, "Z": 0.5516, "Tot": 1.5348}, "functional": "B3LYP", "basis": "6-31+G*", "phase": "gas", "tag": "lis", "state": "successful", "wall_time (s)": 6.5330339630600065, "version": "0.0.1", "gauss_version": "ES64L-G16RevC.01", "last_updated": "2021-09-14 23:22:45.331000", "polarizability": 58.29, "fluorinated-solvent": "58537760", "run_ids": ["61412eb034bd191bce750c24", "61412ebd41f1f189df99c5e6"]}