{"_id": "6141211c456c2bfa5e167082", "molecule": {"@module": "pymatgen.core.structure", "@class": "Molecule", "charge": 0, "spin_multiplicity": 1, "sites": [{"name": "F", "species": [{"element": "F", "occu": 1}], "xyz": [1.043468, -0.262871, -0.324476], "properties": {}}, {"name": "F", "species": [{"element": "F", "occu": 1}], "xyz": [2.721726, 1.089508, -0.681976], "properties": {}}, {"name": "F", "species": [{"element": "F", "occu": 1}], "xyz": [2.792863, -1.288212, -2.112773], "properties": {}}, {"name": "F", "species": [{"element": "F", "occu": 1}], "xyz": [2.175411, 2.973111, 4.072602], "properties": {}}, {"name": "F", "species": [{"element": "F", "occu": 1}], "xyz": [0.531297, 1.587627, 4.449653], "properties": {}}, {"name": "F", "species": [{"element": "F", "occu": 1}], "xyz": [2.340713, 1.491982, 5.669462], "properties": {}}, {"name": "O", "species": [{"element": "O", "occu": 1}], "xyz": [2.669412, -0.108663, 1.229433], "properties": {}}, {"name": "C", "species": [{"element": "C", "occu": 1}], "xyz": [2.393654, -0.116514, -0.102664], "properties": {}}, {"name": "C", "species": [{"element": "C", "occu": 1}], "xyz": [2.000884, 0.901933, 2.017893], "properties": {}}, {"name": "C", "species": [{"element": "C", "occu": 1}], "xyz": [3.162962, -1.265515, -0.764997], "properties": {}}, {"name": "C", "species": [{"element": "C", "occu": 1}], "xyz": [2.498285, 0.69951, 3.444017], "properties": {}}, {"name": "C", "species": [{"element": "C", "occu": 1}], "xyz": [4.668327, -1.119132, -0.657591], "properties": {}}, {"name": "C", "species": [{"element": "C", "occu": 1}], "xyz": [1.885183, 1.689416, 4.409245], "properties": {}}, {"name": "H", "species": [{"element": "H", "occu": 1}], "xyz": [2.264432, 1.893636, 1.639528], "properties": {}}, {"name": "H", "species": [{"element": "H", "occu": 1}], "xyz": [0.918468, 0.762478, 1.94798], "properties": {}}, {"name": "H", "species": [{"element": "H", "occu": 1}], "xyz": [2.803427, -2.196131, -0.313292], "properties": {}}, {"name": "H", "species": [{"element": "H", "occu": 1}], "xyz": [2.248947, -0.306472, 3.794567], "properties": {}}, {"name": "H", "species": [{"element": "H", "occu": 1}], "xyz": [3.584837, 0.819665, 3.488824], "properties": {}}, {"name": "H", "species": [{"element": "H", "occu": 1}], "xyz": [4.975949, -1.124497, 0.392239], "properties": {}}, {"name": "H", "species": [{"element": "H", "occu": 1}], "xyz": [5.148764, -1.955354, -1.173818], "properties": {}}, {"name": "H", "species": [{"element": "H", "occu": 1}], "xyz": [4.991249, -0.182404, -1.121099], "properties": {}}]}, "smiles": "FC(F)(OCCC(F)(F)F)[C@@H](F)C", "inchi": "InChI=1S/C6H8F6O/c1-4(7)6(11,12)13-3-2-5(8,9)10/h4H,2-3H2,1H3/t4-/m0/s1", "formula_alphabetical": "C6 F6 H8 O1", "chemsys": "C-F-H-O", "energy": -907.797497959, "esp": {"1": ["F", -0.20396], "2": ["F", -0.186622], "3": ["F", -0.279499], "4": ["F", -0.20184], "5": ["F", -0.199124], "6": ["F", -0.193744], "7": ["O", -0.397647], "8": ["C", 0.357308], "9": ["C", 0.349067], "10": ["C", 0.357193], "11": ["C", -0.410941], "12": ["C", -0.341547], "13": ["C", 0.562287], "14": ["H", 0.035684], "15": ["H", 0.040495], "16": ["H", 0.051799], "17": ["H", 0.161098], "18": ["H", 0.171536], "19": ["H", 0.090548], "20": ["H", 0.112826], "21": ["H", 0.125084]}, "dipole_moment": {"X": 2.1557, "Y": -1.703, "Z": 1.2955, "Tot": 3.0374}, "functional": "B3LYP", "basis": "6-31+G*", "phase": "gas", "tag": "lis", "state": "successful", "wall_time (s)": 11.214345620013773, "version": "0.0.1", "gauss_version": "ES64L-G16RevC.01", "last_updated": "2021-09-14 22:24:28.702000", "polarizability": 79.66, "fluorinated-solvent": "90243361", "run_ids": ["61412101c8d24b7348087453", "6141211498cd15f17c97f778"]}