{"_id": "613a4d80085b4f52f43edb64", "molecule": {"@module": "pymatgen.core.structure", "@class": "Molecule", "charge": 0, "spin_multiplicity": 1, "sites": [{"name": "F", "species": [{"element": "F", "occu": 1}], "xyz": [3.380967, -0.772253, 1.683994], "properties": {}}, {"name": "F", "species": [{"element": "F", "occu": 1}], "xyz": [1.481683, -0.063116, 0.878603], "properties": {}}, {"name": "F", "species": [{"element": "F", "occu": 1}], "xyz": [3.335429, 0.957298, 0.351112], "properties": {}}, {"name": "O", "species": [{"element": "O", "occu": 1}], "xyz": [0.479241, -2.30168, -1.650976], "properties": {}}, {"name": "C", "species": [{"element": "C", "occu": 1}], "xyz": [2.504213, -2.618469, -0.434867], "properties": {}}, {"name": "C", "species": [{"element": "C", "occu": 1}], "xyz": [2.977433, -1.169181, -0.634665], "properties": {}}, {"name": "C", "species": [{"element": "C", "occu": 1}], "xyz": [0.987748, -2.79406, -0.41864], "properties": {}}, {"name": "C", "species": [{"element": "C", "occu": 1}], "xyz": [-0.926311, -2.467173, -1.831919], "properties": {}}, {"name": "C", "species": [{"element": "C", "occu": 1}], "xyz": [-1.78391, -1.5291, -0.975677], "properties": {}}, {"name": "C", "species": [{"element": "C", "occu": 1}], "xyz": [2.790397, -0.26913, 0.565454], "properties": {}}, {"name": "C", "species": [{"element": "C", "occu": 1}], "xyz": [-1.455084, -0.049548, -1.199557], "properties": {}}, {"name": "H", "species": [{"element": "H", "occu": 1}], "xyz": [2.9071, -3.212638, -1.263336], "properties": {}}, {"name": "H", "species": [{"element": "H", "occu": 1}], "xyz": [2.923923, -3.028085, 0.491803], "properties": {}}, {"name": "H", "species": [{"element": "H", "occu": 1}], "xyz": [2.449846, -0.70893, -1.475003], "properties": {}}, {"name": "H", "species": [{"element": "H", "occu": 1}], "xyz": [4.049331, -1.150773, -0.857926], "properties": {}}, {"name": "H", "species": [{"element": "H", "occu": 1}], "xyz": [0.74279, -3.864411, -0.310648], "properties": {}}, {"name": "H", "species": [{"element": "H", "occu": 1}], "xyz": [0.543384, -2.261201, 0.432419], "properties": {}}, {"name": "H", "species": [{"element": "H", "occu": 1}], "xyz": [-1.096651, -2.25916, -2.894607], "properties": {}}, {"name": "H", "species": [{"element": "H", "occu": 1}], "xyz": [-1.202022, -3.519013, -1.644124], "properties": {}}, {"name": "H", "species": [{"element": "H", "occu": 1}], "xyz": [-2.835731, -1.728304, -1.226538], "properties": {}}, {"name": "H", "species": [{"element": "H", "occu": 1}], "xyz": [-1.672595, -1.781144, 0.08736], "properties": {}}, {"name": "H", "species": [{"element": "H", "occu": 1}], "xyz": [-1.591033, 0.227295, -2.25323], "properties": {}}, {"name": "H", "species": [{"element": "H", "occu": 1}], "xyz": [-2.103199, 0.595178, -0.594667], "properties": {}}, {"name": "H", "species": [{"element": "H", "occu": 1}], "xyz": [-0.41681, 0.164321, -0.928075], "properties": {}}]}, "smiles": "FC(F)(F)CCCOCCC", "inchi": "InChI=1S/C7H13F3O/c1-2-5-11-6-3-4-7(8,9)10/h2-6H2,1H3", "formula_alphabetical": "C7 F3 H13 O1", "chemsys": "C-F-H-O", "energy": -649.362648331, "esp": {"1": ["F", -0.230812], "2": ["F", -0.211137], "3": ["F", -0.249142], "4": ["O", -0.36693], "5": ["C", -0.148103], "6": ["C", -0.095269], "7": ["C", 0.074103], "8": ["C", 0.0214], "9": ["C", 0.188158], "10": ["C", 0.630254], "11": ["C", -0.112441], "12": ["H", 0.088998], "13": ["H", 0.060629], "14": ["H", 0.069666], "15": ["H", 0.071636], "16": ["H", 0.05555], "17": ["H", 0.055714], "18": ["H", 0.066186], "19": ["H", 0.026668], "20": ["H", -0.043729], "21": ["H", -0.02961], "22": ["H", 0.022194], "23": ["H", 0.016696], "24": ["H", 0.039321]}, "dipole_moment": {"X": -0.7728, "Y": -2.1276, "Z": -1.0151, "Tot": 2.4808}, "functional": "B3LYP", "basis": "6-31+G*", "phase": "gas", "tag": "lis", "state": "successful", "wall_time (s)": 11.030022043036297, "version": "0.0.1", "gauss_version": "ES64L-G16RevC.01", "last_updated": "2021-09-09 18:08:00.274000", "polarizability": 89.34, "fluorinated-solvent": "21657893", "run_ids": ["613a49f3247b0098c0f33ced", "613a4d79d33809255abd4d8f"]}