{"_id": "613a4f20db0b7c352d8947bb", "molecule": {"@module": "pymatgen.core.structure", "@class": "Molecule", "charge": 0, "spin_multiplicity": 1, "sites": [{"name": "F", "species": [{"element": "F", "occu": 1}], "xyz": [0.899064, -0.874013, 0.156145], "properties": {}}, {"name": "F", "species": [{"element": "F", "occu": 1}], "xyz": [0.751044, 1.207544, 0.782898], "properties": {}}, {"name": "F", "species": [{"element": "F", "occu": 1}], "xyz": [-0.916925, -0.161281, 1.143761], "properties": {}}, {"name": "O", "species": [{"element": "O", "occu": 1}], "xyz": [2.394112, -0.431731, 2.543543], "properties": {}}, {"name": "C", "species": [{"element": "C", "occu": 1}], "xyz": [4.502458, 0.676378, 2.796823], "properties": {}}, {"name": "C", "species": [{"element": "C", "occu": 1}], "xyz": [4.994914, 0.328558, 1.381584], "properties": {}}, {"name": "C", "species": [{"element": "C", "occu": 1}], "xyz": [2.991272, 0.8221, 2.91624], "properties": {}}, {"name": "C", "species": [{"element": "C", "occu": 1}], "xyz": [4.647665, 1.380821, 0.320298], "properties": {}}, {"name": "C", "species": [{"element": "C", "occu": 1}], "xyz": [0.993633, -0.449201, 2.506377], "properties": {}}, {"name": "C", "species": [{"element": "C", "occu": 1}], "xyz": [0.438605, -0.066958, 1.135031], "properties": {}}, {"name": "H", "species": [{"element": "H", "occu": 1}], "xyz": [4.952519, 1.624367, 3.126418], "properties": {}}, {"name": "H", "species": [{"element": "H", "occu": 1}], "xyz": [4.833961, -0.097378, 3.501771], "properties": {}}, {"name": "H", "species": [{"element": "H", "occu": 1}], "xyz": [6.084966, 0.199257, 1.421997], "properties": {}}, {"name": "H", "species": [{"element": "H", "occu": 1}], "xyz": [4.574415, -0.640773, 1.088315], "properties": {}}, {"name": "H", "species": [{"element": "H", "occu": 1}], "xyz": [2.620365, 1.62485, 2.26792], "properties": {}}, {"name": "H", "species": [{"element": "H", "occu": 1}], "xyz": [2.705436, 1.060097, 3.953206], "properties": {}}, {"name": "H", "species": [{"element": "H", "occu": 1}], "xyz": [0.538282, 0.2226, 3.248393], "properties": {}}, {"name": "H", "species": [{"element": "H", "occu": 1}], "xyz": [0.661442, -1.472833, 2.705982], "properties": {}}, {"name": "H", "species": [{"element": "H", "occu": 1}], "xyz": [5.015877, 2.374634, 0.609349], "properties": {}}, {"name": "H", "species": [{"element": "H", "occu": 1}], "xyz": [5.101124, 1.125399, -0.644672], "properties": {}}, {"name": "H", "species": [{"element": "H", "occu": 1}], "xyz": [3.565949, 1.456185, 0.160692], "properties": {}}]}, "smiles": "FC(F)(F)COCCCC", "inchi": "InChI=1S/C6H11F3O/c1-2-3-4-10-5-6(7,8)9/h2-5H2,1H3", "formula_alphabetical": "C6 F3 H11 O1", "chemsys": "C-F-H-O", "energy": -610.041838935, "esp": {"1": ["F", -0.184214], "2": ["F", -0.192755], "3": ["F", -0.230082], "4": ["O", -0.358977], "5": ["C", -0.246805], "6": ["C", 0.290402], "7": ["C", 0.206925], "8": ["C", -0.239859], "9": ["C", 0.009045], "10": ["C", 0.55062], "11": ["H", 0.060179], "12": ["H", 0.06197], "13": ["H", -0.044661], "14": ["H", -0.050595], "15": ["H", 0.004517], "16": ["H", 0.031383], "17": ["H", 0.067927], "18": ["H", 0.103467], "19": ["H", 0.047312], "20": ["H", 0.045458], "21": ["H", 0.068743]}, "dipole_moment": {"X": 0.6801, "Y": 0.5908, "Z": 2.1971, "Tot": 2.3746}, "functional": "B3LYP", "basis": "6-31+G*", "phase": "gas", "tag": "lis", "state": "successful", "wall_time (s)": 8.993980876053683, "version": "0.0.1", "gauss_version": "ES64L-G16RevC.01", "last_updated": "2021-09-09 18:14:55.986000", "polarizability": 78.17, "fluorinated-solvent": "14024098", "run_ids": ["613a4a5e4519b2c194538dc2", "613a4f1ad99c2f2316c0478b"]}