{"_id": "61411a51df7cb79f71d3862d", "molecule": {"@module": "pymatgen.core.structure", "@class": "Molecule", "charge": 0, "spin_multiplicity": 1, "sites": [{"name": "F", "species": [{"element": "F", "occu": 1}], "xyz": [2.670481, -0.50128, -3.317694], "properties": {}}, {"name": "F", "species": [{"element": "F", "occu": 1}], "xyz": [0.967432, 0.205483, -2.137124], "properties": {}}, {"name": "O", "species": [{"element": "O", "occu": 1}], "xyz": [2.758734, -0.6606, -1.064777], "properties": {}}, {"name": "C", "species": [{"element": "C", "occu": 1}], "xyz": [2.354857, 0.109054, -2.108163], "properties": {}}, {"name": "C", "species": [{"element": "C", "occu": 1}], "xyz": [2.970869, 1.483049, -2.04209], "properties": {}}, {"name": "C", "species": [{"element": "C", "occu": 1}], "xyz": [2.223303, -2.013623, -1.027398], "properties": {}}, {"name": "C", "species": [{"element": "C", "occu": 1}], "xyz": [2.755336, -2.691295, 0.146331], "properties": {}}, {"name": "C", "species": [{"element": "C", "occu": 1}], "xyz": [3.18078, -3.280957, 1.113642], "properties": {}}, {"name": "C", "species": [{"element": "C", "occu": 1}], "xyz": [3.702242, -3.981226, 2.285661], "properties": {}}, {"name": "H", "species": [{"element": "H", "occu": 1}], "xyz": [4.059057, 1.392439, -2.072968], "properties": {}}, {"name": "H", "species": [{"element": "H", "occu": 1}], "xyz": [2.623879, 2.071202, -2.89462], "properties": {}}, {"name": "H", "species": [{"element": "H", "occu": 1}], "xyz": [2.67098, 1.968495, -1.110573], "properties": {}}, {"name": "H", "species": [{"element": "H", "occu": 1}], "xyz": [1.129514, -1.959993, -0.987905], "properties": {}}, {"name": "H", "species": [{"element": "H", "occu": 1}], "xyz": [2.513675, -2.534211, -1.946898], "properties": {}}, {"name": "H", "species": [{"element": "H", "occu": 1}], "xyz": [4.380299, -3.332117, 2.85316], "properties": {}}, {"name": "H", "species": [{"element": "H", "occu": 1}], "xyz": [2.892214, -4.289031, 2.95796], "properties": {}}, {"name": "H", "species": [{"element": "H", "occu": 1}], "xyz": [4.262089, -4.878727, 1.995918], "properties": {}}]}, "smiles": "FC(F)(OCC#CC)C", "inchi": "InChI=1S/C6H8F2O/c1-3-4-5-9-6(2,7)8/h5H2,1-2H3", "formula_alphabetical": "C6 F2 H8 O1", "chemsys": "C-F-H-O", "energy": -508.333963196, "esp": {"1": ["F", -0.272229], "2": ["F", -0.274435], "3": ["O", -0.373346], "4": ["C", 0.66932], "5": ["C", -0.488196], "6": ["C", 0.341262], "7": ["C", -0.34148], "8": ["C", 0.105214], "9": ["C", -0.326924], "10": ["H", 0.153645], "11": ["H", 0.164356], "12": ["H", 0.154929], "13": ["H", 0.050578], "14": ["H", 0.049141], "15": ["H", 0.134722], "16": ["H", 0.12675], "17": ["H", 0.126692]}, "dipole_moment": {"X": 0.9238, "Y": -0.5017, "Z": 1.6324, "Tot": 1.9416}, "functional": "B3LYP", "basis": "6-31+G*", "phase": "gas", "tag": "lis", "state": "successful", "wall_time (s)": 7.935798613005318, "version": "0.0.1", "gauss_version": "ES64L-G16RevC.01", "last_updated": "2021-09-14 21:55:29.327000", "polarizability": 76.38, "fluorinated-solvent": "90125016", "run_ids": ["61411a35a310a4163d1260db", "61411a487914e1cab8888dae"]}