{"_id": "61410feff391a650ecd24c4b", "molecule": {"@module": "pymatgen.core.structure", "@class": "Molecule", "charge": 0, "spin_multiplicity": 1, "sites": [{"name": "F", "species": [{"element": "F", "occu": 1}], "xyz": [1.118844, -0.064662, -0.498597], "properties": {}}, {"name": "F", "species": [{"element": "F", "occu": 1}], "xyz": [2.743887, 1.328185, -0.029232], "properties": {}}, {"name": "O", "species": [{"element": "O", "occu": 1}], "xyz": [2.867773, -0.795028, 0.728568], "properties": {}}, {"name": "C", "species": [{"element": "C", "occu": 1}], "xyz": [2.498658, -0.012171, -0.312439], "properties": {}}, {"name": "C", "species": [{"element": "C", "occu": 1}], "xyz": [2.270888, -0.509097, 2.019723], "properties": {}}, {"name": "C", "species": [{"element": "C", "occu": 1}], "xyz": [3.213298, -0.403757, -1.589509], "properties": {}}, {"name": "C", "species": [{"element": "C", "occu": 1}], "xyz": [2.703592, -1.611187, 2.974883], "properties": {}}, {"name": "C", "species": [{"element": "C", "occu": 1}], "xyz": [2.940669, -1.851895, -2.006735], "properties": {}}, {"name": "C", "species": [{"element": "C", "occu": 1}], "xyz": [2.181037, -2.996344, 2.57755], "properties": {}}, {"name": "H", "species": [{"element": "H", "occu": 1}], "xyz": [2.884423, 0.299216, -2.36187], "properties": {}}, {"name": "H", "species": [{"element": "H", "occu": 1}], "xyz": [4.282382, -0.237141, -1.419997], "properties": {}}, {"name": "H", "species": [{"element": "H", "occu": 1}], "xyz": [2.617695, 0.47429, 2.354702], "properties": {}}, {"name": "H", "species": [{"element": "H", "occu": 1}], "xyz": [1.180827, -0.485125, 1.909067], "properties": {}}, {"name": "H", "species": [{"element": "H", "occu": 1}], "xyz": [3.800091, -1.619843, 3.02917], "properties": {}}, {"name": "H", "species": [{"element": "H", "occu": 1}], "xyz": [2.338427, -1.340912, 3.975229], "properties": {}}, {"name": "H", "species": [{"element": "H", "occu": 1}], "xyz": [1.870599, -2.018201, -2.169047], "properties": {}}, {"name": "H", "species": [{"element": "H", "occu": 1}], "xyz": [3.467324, -2.080337, -2.939609], "properties": {}}, {"name": "H", "species": [{"element": "H", "occu": 1}], "xyz": [3.283775, -2.551015, -1.237743], "properties": {}}, {"name": "H", "species": [{"element": "H", "occu": 1}], "xyz": [2.550689, -3.282976, 1.587554], "properties": {}}, {"name": "H", "species": [{"element": "H", "occu": 1}], "xyz": [2.502943, -3.758779, 3.296178], "properties": {}}, {"name": "H", "species": [{"element": "H", "occu": 1}], "xyz": [1.084028, -3.007405, 2.542441], "properties": {}}]}, "smiles": "FC(F)(OCCC)CC", "inchi": "InChI=1S/C6H12F2O/c1-3-5-9-6(7,8)4-2/h3-5H2,1-2H3", "formula_alphabetical": "C6 F2 H12 O1", "chemsys": "C-F-H-O", "energy": -510.816662483, "esp": {"1": ["F", -0.238116], "2": ["F", -0.263339], "3": ["O", -0.2919], "4": ["C", 0.48657], "5": ["C", -0.002467], "6": ["C", -0.040433], "7": ["C", 0.09302], "8": ["C", -0.192766], "9": ["C", -0.154855], "10": ["H", 0.06652], "11": ["H", 0.052772], "12": ["H", 0.074695], "13": ["H", 0.087408], "14": ["H", 0.010025], "15": ["H", -0.001501], "16": ["H", 0.065638], "17": ["H", 0.064236], "18": ["H", 0.05839], "19": ["H", 0.04569], "20": ["H", 0.038149], "21": ["H", 0.042263]}, "dipole_moment": {"X": 0.7442, "Y": -1.264, "Z": 0.6082, "Tot": 1.5879}, "functional": "B3LYP", "basis": "6-31+G*", "phase": "gas", "tag": "lis", "state": "successful", "wall_time (s)": 9.119684238918126, "version": "0.0.1", "gauss_version": "ES64L-G16RevC.01", "last_updated": "2021-09-14 21:11:10.933000", "polarizability": 76.91, "fluorinated-solvent": "88900266", "run_ids": ["61410fd94672e0194b691f59", "61410fe941b1c71d4697e468"]}