{"_id": "613a4ce57da2b2f0413cb4cf", "molecule": {"@module": "pymatgen.core.structure", "@class": "Molecule", "charge": 0, "spin_multiplicity": 1, "sites": [{"name": "F", "species": [{"element": "F", "occu": 1}], "xyz": [0.919776, -0.138048, 0.554944], "properties": {}}, {"name": "F", "species": [{"element": "F", "occu": 1}], "xyz": [2.029617, -0.409815, -1.309434], "properties": {}}, {"name": "F", "species": [{"element": "F", "occu": 1}], "xyz": [2.451242, -2.400016, 0.513991], "properties": {}}, {"name": "F", "species": [{"element": "F", "occu": 1}], "xyz": [4.263814, -1.243192, 0.14373], "properties": {}}, {"name": "F", "species": [{"element": "F", "occu": 1}], "xyz": [3.15534, -0.971786, 2.00568], "properties": {}}, {"name": "O", "species": [{"element": "O", "occu": 1}], "xyz": [2.777839, 1.09519, 0.198922], "properties": {}}, {"name": "C", "species": [{"element": "C", "occu": 1}], "xyz": [2.182705, -0.089252, 0.017312], "properties": {}}, {"name": "C", "species": [{"element": "C", "occu": 1}], "xyz": [3.035907, -1.203009, 0.687572], "properties": {}}, {"name": "C", "species": [{"element": "C", "occu": 1}], "xyz": [2.109918, 2.263571, -0.368392], "properties": {}}, {"name": "C", "species": [{"element": "C", "occu": 1}], "xyz": [2.970496, 3.465183, -0.033473], "properties": {}}, {"name": "H", "species": [{"element": "H", "occu": 1}], "xyz": [2.016172, 2.115699, -1.448783], "properties": {}}, {"name": "H", "species": [{"element": "H", "occu": 1}], "xyz": [1.112018, 2.338565, 0.074859], "properties": {}}, {"name": "H", "species": [{"element": "H", "occu": 1}], "xyz": [3.970072, 3.359077, -0.467035], "properties": {}}, {"name": "H", "species": [{"element": "H", "occu": 1}], "xyz": [2.507723, 4.371348, -0.440488], "properties": {}}, {"name": "H", "species": [{"element": "H", "occu": 1}], "xyz": [3.069671, 3.580926, 1.050573], "properties": {}}]}, "smiles": "FC(F)(OCC)C(F)(F)F", "inchi": "InChI=1S/C4H5F5O/c1-2-10-4(8,9)3(5,6)7/h2H2,1H3", "formula_alphabetical": "C4 F5 H5 O1", "chemsys": "C-F-H-O", "energy": -729.911322394, "esp": {"1": ["F", -0.156331], "2": ["F", -0.154927], "3": ["F", -0.144524], "4": ["F", -0.148165], "5": ["F", -0.146942], "6": ["O", -0.323085], "7": ["C", 0.256606], "8": ["C", 0.459697], "9": ["C", 0.367112], "10": ["C", -0.377504], "11": ["H", 0.02059], "12": ["H", 0.018874], "13": ["H", 0.116664], "14": ["H", 0.092971], "15": ["H", 0.118964]}, "dipole_moment": {"X": -0.3269, "Y": 3.1774, "Z": -0.6573, "Tot": 3.2611}, "functional": "B3LYP", "basis": "6-31+G*", "phase": "gas", "tag": "lis", "state": "successful", "wall_time (s)": 6.876741006039083, "version": "0.0.1", "gauss_version": "ES64L-G16RevC.01", "last_updated": "2021-09-09 18:05:24.740000", "polarizability": 56.99, "fluorinated-solvent": "2775947", "run_ids": ["613a49c67b4fb0f0092fbbf6", "613a4b772152c5e116c37996"]}