{"_id": "61410c2dc6dee484aa94c0e1", "molecule": {"@module": "pymatgen.core.structure", "@class": "Molecule", "charge": 0, "spin_multiplicity": 1, "sites": [{"name": "F", "species": [{"element": "F", "occu": 1}], "xyz": [2.487506, 2.813959, 1.795987], "properties": {}}, {"name": "F", "species": [{"element": "F", "occu": 1}], "xyz": [1.22083, 1.059235, 1.451343], "properties": {}}, {"name": "O", "species": [{"element": "O", "occu": 1}], "xyz": [3.057815, 1.352648, 0.171731], "properties": {}}, {"name": "C", "species": [{"element": "C", "occu": 1}], "xyz": [2.890952, 1.556955, -2.213575], "properties": {}}, {"name": "C", "species": [{"element": "C", "occu": 1}], "xyz": [2.565688, 0.071658, -2.444053], "properties": {}}, {"name": "C", "species": [{"element": "C", "occu": 1}], "xyz": [2.406845, 2.111826, -0.881556], "properties": {}}, {"name": "C", "species": [{"element": "C", "occu": 1}], "xyz": [1.065533, -0.250153, -2.43665], "properties": {}}, {"name": "C", "species": [{"element": "C", "occu": 1}], "xyz": [2.550535, 1.476014, 1.420559], "properties": {}}, {"name": "C", "species": [{"element": "C", "occu": 1}], "xyz": [3.356359, 0.691441, 2.424789], "properties": {}}, {"name": "H", "species": [{"element": "H", "occu": 1}], "xyz": [2.431201, 2.166527, -3.005229], "properties": {}}, {"name": "H", "species": [{"element": "H", "occu": 1}], "xyz": [3.975735, 1.711649, -2.283691], "properties": {}}, {"name": "H", "species": [{"element": "H", "occu": 1}], "xyz": [2.997219, -0.2265, -3.409057], "properties": {}}, {"name": "H", "species": [{"element": "H", "occu": 1}], "xyz": [3.073323, -0.52655, -1.677337], "properties": {}}, {"name": "H", "species": [{"element": "H", "occu": 1}], "xyz": [1.32256, 2.016287, -0.772282], "properties": {}}, {"name": "H", "species": [{"element": "H", "occu": 1}], "xyz": [2.679387, 3.166296, -0.767017], "properties": {}}, {"name": "H", "species": [{"element": "H", "occu": 1}], "xyz": [0.522937, 0.367123, -3.165353], "properties": {}}, {"name": "H", "species": [{"element": "H", "occu": 1}], "xyz": [0.890469, -1.301185, -2.69511], "properties": {}}, {"name": "H", "species": [{"element": "H", "occu": 1}], "xyz": [0.618124, -0.078029, -1.450822], "properties": {}}, {"name": "H", "species": [{"element": "H", "occu": 1}], "xyz": [4.382908, 1.065104, 2.435678], "properties": {}}, {"name": "H", "species": [{"element": "H", "occu": 1}], "xyz": [2.909428, 0.809341, 3.414415], "properties": {}}, {"name": "H", "species": [{"element": "H", "occu": 1}], "xyz": [3.355135, -0.364106, 2.142808], "properties": {}}]}, "smiles": "FC(F)(OCCCC)C", "inchi": "InChI=1S/C6H12F2O/c1-3-4-5-9-6(2,7)8/h3-5H2,1-2H3", "formula_alphabetical": "C6 F2 H12 O1", "chemsys": "C-F-H-O", "energy": -510.815797718, "esp": {"1": ["F", -0.29213], "2": ["F", -0.286099], "3": ["O", -0.400269], "4": ["C", -0.170207], "5": ["C", 0.253454], "6": ["C", 0.142442], "7": ["C", -0.249308], "8": ["C", 0.780242], "9": ["C", -0.587917], "10": ["H", 0.047656], "11": ["H", 0.050844], "12": ["H", -0.039725], "13": ["H", -0.04196], "14": ["H", 0.036725], "15": ["H", 0.0537], "16": ["H", 0.051141], "17": ["H", 0.048566], "18": ["H", 0.075043], "19": ["H", 0.172597], "20": ["H", 0.177254], "21": ["H", 0.177951]}, "dipole_moment": {"X": 0.9997, "Y": -0.6008, "Z": -0.9767, "Tot": 1.5213}, "functional": "B3LYP", "basis": "6-31+G*", "phase": "gas", "tag": "lis", "state": "successful", "wall_time (s)": 8.1836009810213, "version": "0.0.1", "gauss_version": "ES64L-G16RevC.01", "last_updated": "2021-09-14 20:55:09.384000", "polarizability": 76.88, "fluorinated-solvent": "57884855", "run_ids": ["61410b38ae65311c689ea429", "61410be226faea73b7425930"]}