{"_id": "613a55d5af6dc21d753eec08", "molecule": {"@module": "pymatgen.core.structure", "@class": "Molecule", "charge": 0, "spin_multiplicity": 1, "sites": [{"name": "F", "species": [{"element": "F", "occu": 1}], "xyz": [1.011364, 0.092868, 0.198171], "properties": {}}, {"name": "F", "species": [{"element": "F", "occu": 1}], "xyz": [2.834928, 0.878167, 1.120097], "properties": {}}, {"name": "O", "species": [{"element": "O", "occu": 1}], "xyz": [2.823081, -1.245043, 0.353195], "properties": {}}, {"name": "C", "species": [{"element": "C", "occu": 1}], "xyz": [2.875096, 0.504989, -1.240336], "properties": {}}, {"name": "C", "species": [{"element": "C", "occu": 1}], "xyz": [2.398377, 0.021547, 0.114346], "properties": {}}, {"name": "C", "species": [{"element": "C", "occu": 1}], "xyz": [2.42377, 1.931635, -1.564036], "properties": {}}, {"name": "C", "species": [{"element": "C", "occu": 1}], "xyz": [2.435815, -1.825708, 1.614227], "properties": {}}, {"name": "H", "species": [{"element": "H", "occu": 1}], "xyz": [3.967482, 0.426595, -1.237072], "properties": {}}, {"name": "H", "species": [{"element": "H", "occu": 1}], "xyz": [2.4966, -0.207504, -1.980987], "properties": {}}, {"name": "H", "species": [{"element": "H", "occu": 1}], "xyz": [2.80888, 2.643665, -0.827147], "properties": {}}, {"name": "H", "species": [{"element": "H", "occu": 1}], "xyz": [2.795934, 2.226034, -2.551112], "properties": {}}, {"name": "H", "species": [{"element": "H", "occu": 1}], "xyz": [1.331736, 2.006844, -1.574011], "properties": {}}, {"name": "H", "species": [{"element": "H", "occu": 1}], "xyz": [2.841325, -1.242377, 2.446136], "properties": {}}, {"name": "H", "species": [{"element": "H", "occu": 1}], "xyz": [1.34618, -1.886289, 1.690489], "properties": {}}, {"name": "H", "species": [{"element": "H", "occu": 1}], "xyz": [2.867643, -2.827105, 1.61312], "properties": {}}]}, "smiles": "FC(F)(OC)CC", "inchi": "InChI=1S/C4H8F2O/c1-3-4(5,6)7-2/h3H2,1-2H3", "formula_alphabetical": "C4 F2 H8 O1", "chemsys": "C-F-H-O", "energy": -432.182461551, "esp": {"1": ["F", -0.246215], "2": ["F", -0.242417], "3": ["O", -0.40346], "4": ["C", -0.023782], "5": ["C", 0.575931], "6": ["C", -0.145301], "7": ["C", 0.009066], "8": ["H", 0.045625], "9": ["H", 0.045491], "10": ["H", 0.044257], "11": ["H", 0.053908], "12": ["H", 0.048063], "13": ["H", 0.073313], "14": ["H", 0.072704], "15": ["H", 0.092817]}, "dipole_moment": {"X": 0.563, "Y": -0.8597, "Z": -0.3807, "Tot": 1.0959}, "functional": "B3LYP", "basis": "6-31+G*", "phase": "gas", "tag": "lis", "state": "successful", "wall_time (s)": 5.590121428016573, "version": "0.0.1", "gauss_version": "ES64L-G16RevC.01", "last_updated": "2021-09-09 18:43:33.179000", "polarizability": 53.73, "fluorinated-solvent": "53665128", "run_ids": ["613a4ae798854befda9b2f9d", "613a55cb870e201c66f59273"]}