{"_id": "6141219af9af1ffd32dbf70d", "molecule": {"@module": "pymatgen.core.structure", "@class": "Molecule", "charge": 0, "spin_multiplicity": 1, "sites": [{"name": "F", "species": [{"element": "F", "occu": 1}], "xyz": [0.307324, -4.458841, -5.059108], "properties": {}}, {"name": "F", "species": [{"element": "F", "occu": 1}], "xyz": [2.230974, -5.08295, -4.237711], "properties": {}}, {"name": "F", "species": [{"element": "F", "occu": 1}], "xyz": [2.163247, -3.771081, -5.982252], "properties": {}}, {"name": "O", "species": [{"element": "O", "occu": 1}], "xyz": [1.026871, -1.86604, -1.804606], "properties": {}}, {"name": "C", "species": [{"element": "C", "occu": 1}], "xyz": [0.783179, -2.770703, 0.509924], "properties": {}}, {"name": "C", "species": [{"element": "C", "occu": 1}], "xyz": [0.272007, -1.831795, -0.593984], "properties": {}}, {"name": "C", "species": [{"element": "C", "occu": 1}], "xyz": [0.909953, -3.070373, -2.542277], "properties": {}}, {"name": "C", "species": [{"element": "C", "occu": 1}], "xyz": [2.270521, -2.530354, 0.795981], "properties": {}}, {"name": "C", "species": [{"element": "C", "occu": 1}], "xyz": [-0.073507, -2.585428, 1.771179], "properties": {}}, {"name": "C", "species": [{"element": "C", "occu": 1}], "xyz": [1.579547, -2.816607, -3.891451], "properties": {}}, {"name": "C", "species": [{"element": "C", "occu": 1}], "xyz": [1.570079, -4.029851, -4.789936], "properties": {}}, {"name": "H", "species": [{"element": "H", "occu": 1}], "xyz": [0.65623, -3.809107, 0.16932], "properties": {}}, {"name": "H", "species": [{"element": "H", "occu": 1}], "xyz": [0.340207, -0.79186, -0.253353], "properties": {}}, {"name": "H", "species": [{"element": "H", "occu": 1}], "xyz": [-0.787464, -2.048303, -0.814433], "properties": {}}, {"name": "H", "species": [{"element": "H", "occu": 1}], "xyz": [-0.149763, -3.337101, -2.681487], "properties": {}}, {"name": "H", "species": [{"element": "H", "occu": 1}], "xyz": [1.404851, -3.90535, -2.02612], "properties": {}}, {"name": "H", "species": [{"element": "H", "occu": 1}], "xyz": [2.433091, -1.50726, 1.161273], "properties": {}}, {"name": "H", "species": [{"element": "H", "occu": 1}], "xyz": [2.639672, -3.224018, 1.560969], "properties": {}}, {"name": "H", "species": [{"element": "H", "occu": 1}], "xyz": [2.875484, -2.658738, -0.107838], "properties": {}}, {"name": "H", "species": [{"element": "H", "occu": 1}], "xyz": [-1.136039, -2.773963, 1.57157], "properties": {}}, {"name": "H", "species": [{"element": "H", "occu": 1}], "xyz": [0.245534, -3.272519, 2.563549], "properties": {}}, {"name": "H", "species": [{"element": "H", "occu": 1}], "xyz": [0.020032, -1.562632, 2.160587], "properties": {}}, {"name": "H", "species": [{"element": "H", "occu": 1}], "xyz": [2.622243, -2.521215, -3.739885], "properties": {}}, {"name": "H", "species": [{"element": "H", "occu": 1}], "xyz": [1.069663, -2.004233, -4.41772], "properties": {}}]}, "smiles": "FC(F)(F)CCOCC(C)C", "inchi": "InChI=1S/C7H13F3O/c1-6(2)5-11-4-3-7(8,9)10/h6H,3-5H2,1-2H3", "formula_alphabetical": "C7 F3 H13 O1", "chemsys": "C-F-H-O", "energy": -649.363125264, "esp": {"1": ["F", -0.245076], "2": ["F", -0.241297], "3": ["F", -0.236238], "4": ["O", -0.427846], "5": ["C", 0.492043], "6": ["C", -0.124624], "7": ["C", 0.360159], "8": ["C", -0.37768], "9": ["C", -0.479948], "10": ["C", -0.400595], "11": ["C", 0.703384], "12": ["H", -0.065997], "13": ["H", 0.108717], "14": ["H", 0.072902], "15": ["H", 0.000941], "16": ["H", -0.004686], "17": ["H", 0.084487], "18": ["H", 0.075802], "19": ["H", 0.098616], "20": ["H", 0.089377], "21": ["H", 0.122084], "22": ["H", 0.103694], "23": ["H", 0.142875], "24": ["H", 0.148906]}, "dipole_moment": {"X": -0.7588, "Y": 0.8601, "Z": 2.3265, "Tot": 2.5939}, "functional": "B3LYP", "basis": "6-31+G*", "phase": "gas", "tag": "lis", "state": "successful", "wall_time (s)": 10.307789298007265, "version": "0.0.1", "gauss_version": "ES64L-G16RevC.01", "last_updated": "2021-09-14 22:26:33.984000", "polarizability": 90.29, "fluorinated-solvent": "140839254", "run_ids": ["614121848e5b22ce606b703f", "61412195fe48e55310621d0d"]}