{"_id": "61411a483f5cb9d8ede9f20e", "molecule": {"@module": "pymatgen.core.structure", "@class": "Molecule", "charge": 0, "spin_multiplicity": 1, "sites": [{"name": "F", "species": [{"element": "F", "occu": 1}], "xyz": [4.575895, 0.495903, 0.776178], "properties": {}}, {"name": "F", "species": [{"element": "F", "occu": 1}], "xyz": [4.550362, 0.746028, -1.421098], "properties": {}}, {"name": "F", "species": [{"element": "F", "occu": 1}], "xyz": [0.292344, 2.805559, 0.081238], "properties": {}}, {"name": "F", "species": [{"element": "F", "occu": 1}], "xyz": [0.290858, 0.898571, 1.149751], "properties": {}}, {"name": "F", "species": [{"element": "F", "occu": 1}], "xyz": [6.178028, 2.524874, -0.198462], "properties": {}}, {"name": "F", "species": [{"element": "F", "occu": 1}], "xyz": [4.383863, 3.525373, -1.025239], "properties": {}}, {"name": "O", "species": [{"element": "O", "occu": 1}], "xyz": [2.224874, 2.032888, 0.943088], "properties": {}}, {"name": "C", "species": [{"element": "C", "occu": 1}], "xyz": [2.624815, 1.363339, -0.259627], "properties": {}}, {"name": "C", "species": [{"element": "C", "occu": 1}], "xyz": [4.143091, 1.305834, -0.242174], "properties": {}}, {"name": "C", "species": [{"element": "C", "occu": 1}], "xyz": [0.877993, 2.151662, 1.151746], "properties": {}}, {"name": "C", "species": [{"element": "C", "occu": 1}], "xyz": [0.603094, 2.879327, 2.450463], "properties": {}}, {"name": "C", "species": [{"element": "C", "occu": 1}], "xyz": [4.832599, 2.669529, -0.054587], "properties": {}}, {"name": "C", "species": [{"element": "C", "occu": 1}], "xyz": [-0.891979, 3.036938, 2.741337], "properties": {}}, {"name": "H", "species": [{"element": "H", "occu": 1}], "xyz": [2.294508, 1.918024, -1.14157], "properties": {}}, {"name": "H", "species": [{"element": "H", "occu": 1}], "xyz": [2.241686, 0.339323, -0.287683], "properties": {}}, {"name": "H", "species": [{"element": "H", "occu": 1}], "xyz": [1.103906, 2.312717, 3.24262], "properties": {}}, {"name": "H", "species": [{"element": "H", "occu": 1}], "xyz": [1.09686, 3.854297, 2.377849], "properties": {}}, {"name": "H", "species": [{"element": "H", "occu": 1}], "xyz": [4.617209, 3.097895, 0.926646], "properties": {}}, {"name": "H", "species": [{"element": "H", "occu": 1}], "xyz": [-1.382937, 2.062068, 2.82207], "properties": {}}, {"name": "H", "species": [{"element": "H", "occu": 1}], "xyz": [-1.031658, 3.569336, 3.687721], "properties": {}}, {"name": "H", "species": [{"element": "H", "occu": 1}], "xyz": [-1.389721, 3.607875, 1.951223], "properties": {}}]}, "smiles": "FC(F)(COC(F)(F)CC)C(F)F", "inchi": "InChI=1S/C6H8F6O/c1-2-6(11,12)13-3-5(9,10)4(7)8/h4H,2-3H2,1H3", "formula_alphabetical": "C6 F6 H8 O1", "chemsys": "C-F-H-O", "energy": -907.785966284, "esp": {"1": ["F", -0.205594], "2": ["F", -0.209402], "3": ["F", -0.248144], "4": ["F", -0.248378], "5": ["F", -0.205619], "6": ["F", -0.204051], "7": ["O", -0.460933], "8": ["C", -0.036594], "9": ["C", 0.39099], "10": ["C", 0.641959], "11": ["C", -0.011062], "12": ["C", 0.335971], "13": ["C", -0.230007], "14": ["H", 0.11657], "15": ["H", 0.149115], "16": ["H", 0.055936], "17": ["H", 0.052413], "18": ["H", 0.097116], "19": ["H", 0.071748], "20": ["H", 0.076894], "21": ["H", 0.071073]}, "dipole_moment": {"X": -2.0042, "Y": 1.1532, "Z": 2.2677, "Tot": 3.2387}, "functional": "B3LYP", "basis": "6-31+G*", "phase": "gas", "tag": "lis", "state": "successful", "wall_time (s)": 11.403413805994205, "version": "0.0.1", "gauss_version": "ES64L-G16RevC.01", "last_updated": "2021-09-14 21:55:19.713000", "polarizability": 79.62, "fluorinated-solvent": "88900256", "run_ids": ["61411a2a722d894252dfb626", "61411a3dd9240aa18553c01b"]}