{"_id": "613a57301f395e27054517bc", "molecule": {"@module": "pymatgen.core.structure", "@class": "Molecule", "charge": 0, "spin_multiplicity": 1, "sites": [{"name": "F", "species": [{"element": "F", "occu": 1}], "xyz": [0.782044, -0.023603, 0.445188], "properties": {}}, {"name": "F", "species": [{"element": "F", "occu": 1}], "xyz": [2.565674, 1.274729, 0.292847], "properties": {}}, {"name": "F", "species": [{"element": "F", "occu": 1}], "xyz": [4.499677, -0.660052, -1.522437], "properties": {}}, {"name": "F", "species": [{"element": "F", "occu": 1}], "xyz": [6.384627, -0.795475, -0.429167], "properties": {}}, {"name": "F", "species": [{"element": "F", "occu": 1}], "xyz": [5.102752, -2.547076, -0.603936], "properties": {}}, {"name": "O", "species": [{"element": "O", "occu": 1}], "xyz": [2.457242, -2.268828, 0.481311], "properties": {}}, {"name": "C", "species": [{"element": "C", "occu": 1}], "xyz": [2.881644, -0.998572, 0.918799], "properties": {}}, {"name": "C", "species": [{"element": "C", "occu": 1}], "xyz": [4.410409, -0.792908, 0.866586], "properties": {}}, {"name": "C", "species": [{"element": "C", "occu": 1}], "xyz": [2.098188, -0.001525, 0.060219], "properties": {}}, {"name": "C", "species": [{"element": "C", "occu": 1}], "xyz": [5.08843, -1.204374, -0.425646], "properties": {}}, {"name": "C", "species": [{"element": "C", "occu": 1}], "xyz": [2.679607, -3.346417, 1.395136], "properties": {}}, {"name": "C", "species": [{"element": "C", "occu": 1}], "xyz": [2.077873, -4.599989, 0.7853], "properties": {}}, {"name": "H", "species": [{"element": "H", "occu": 1}], "xyz": [2.565353, -0.814189, 1.958871], "properties": {}}, {"name": "H", "species": [{"element": "H", "occu": 1}], "xyz": [4.639266, 0.262143, 1.038531], "properties": {}}, {"name": "H", "species": [{"element": "H", "occu": 1}], "xyz": [4.890443, -1.366496, 1.664586], "properties": {}}, {"name": "H", "species": [{"element": "H", "occu": 1}], "xyz": [2.147532, -0.202685, -1.010834], "properties": {}}, {"name": "H", "species": [{"element": "H", "occu": 1}], "xyz": [3.757681, -3.48208, 1.564805], "properties": {}}, {"name": "H", "species": [{"element": "H", "occu": 1}], "xyz": [2.205388, -3.107054, 2.360534], "properties": {}}, {"name": "H", "species": [{"element": "H", "occu": 1}], "xyz": [2.558139, -4.823853, -0.17285], "properties": {}}, {"name": "H", "species": [{"element": "H", "occu": 1}], "xyz": [2.222931, -5.453645, 1.457426], "properties": {}}, {"name": "H", "species": [{"element": "H", "occu": 1}], "xyz": [1.00475, -4.465589, 0.614131], "properties": {}}]}, "smiles": "FC(F)[C@@H](OCC)CC(F)(F)F", "inchi": "InChI=1S/C6H9F5O/c1-2-12-4(5(7)8)3-6(9,10)11/h4-5H,2-3H2,1H3/t4-/m0/s1", "formula_alphabetical": "C6 F5 H9 O1", "chemsys": "C-F-H-O", "energy": -808.534606908, "esp": {"1": ["F", -0.248218], "2": ["F", -0.257773], "3": ["F", -0.234995], "4": ["F", -0.244363], "5": ["F", -0.20719], "6": ["O", -0.504676], "7": ["C", 0.1634], "8": ["C", -0.45566], "9": ["C", 0.406257], "10": ["C", 0.722815], "11": ["C", 0.446313], "12": ["C", -0.336166], "13": ["H", 0.098362], "14": ["H", 0.173059], "15": ["H", 0.155121], "16": ["H", 0.107854], "17": ["H", -0.034081], "18": ["H", -0.033932], "19": ["H", 0.109295], "20": ["H", 0.070771], "21": ["H", 0.103806]}, "dipole_moment": {"X": 0.4941, "Y": -1.617, "Z": 2.5153, "Tot": 3.0308}, "functional": "B3LYP", "basis": "6-31+G*", "phase": "gas", "tag": "lis", "state": "successful", "wall_time (s)": 10.70046193304006, "version": "0.0.1", "gauss_version": "ES64L-G16RevC.01", "last_updated": "2021-09-09 18:49:19.731000", "polarizability": 79.09, "fluorinated-solvent": "54045886", "run_ids": ["613a4afc753d090cdabba756", "613a572a3254e7532d29c6e7"]}