{"_id": "61410f401cf5125d62f544b8", "molecule": {"@module": "pymatgen.core.structure", "@class": "Molecule", "charge": 0, "spin_multiplicity": 1, "sites": [{"name": "F", "species": [{"element": "F", "occu": 1}], "xyz": [-4.741367, -3.460077, -0.81523], "properties": {}}, {"name": "F", "species": [{"element": "F", "occu": 1}], "xyz": [-3.07645, -3.625148, -2.273108], "properties": {}}, {"name": "F", "species": [{"element": "F", "occu": 1}], "xyz": [5.207014, -0.310064, -0.81416], "properties": {}}, {"name": "F", "species": [{"element": "F", "occu": 1}], "xyz": [7.340151, -0.555151, -0.254528], "properties": {}}, {"name": "O", "species": [{"element": "O", "occu": 1}], "xyz": [0.995668, -2.542198, 1.058685], "properties": {}}, {"name": "O", "species": [{"element": "O", "occu": 1}], "xyz": [-1.284273, -4.077066, -0.012408], "properties": {}}, {"name": "O", "species": [{"element": "O", "occu": 1}], "xyz": [4.625486, -2.656702, 0.857291], "properties": {}}, {"name": "C", "species": [{"element": "C", "occu": 1}], "xyz": [0.367892, -2.248172, -0.182367], "properties": {}}, {"name": "C", "species": [{"element": "C", "occu": 1}], "xyz": [2.295599, -3.112285, 0.967216], "properties": {}}, {"name": "C", "species": [{"element": "C", "occu": 1}], "xyz": [-0.287693, -3.465494, -0.834666], "properties": {}}, {"name": "C", "species": [{"element": "C", "occu": 1}], "xyz": [3.35437, -2.012186, 0.97303], "properties": {}}, {"name": "C", "species": [{"element": "C", "occu": 1}], "xyz": [-2.539273, -3.430255, 0.040658], "properties": {}}, {"name": "C", "species": [{"element": "C", "occu": 1}], "xyz": [5.753214, -1.81315, 0.958695], "properties": {}}, {"name": "C", "species": [{"element": "C", "occu": 1}], "xyz": [-3.486311, -3.99419, -1.006945], "properties": {}}, {"name": "C", "species": [{"element": "C", "occu": 1}], "xyz": [6.146312, -1.227752, -0.389609], "properties": {}}, {"name": "H", "species": [{"element": "H", "occu": 1}], "xyz": [1.080119, -1.8096, -0.90098], "properties": {}}, {"name": "H", "species": [{"element": "H", "occu": 1}], "xyz": [-0.380864, -1.480961, 0.041703], "properties": {}}, {"name": "H", "species": [{"element": "H", "occu": 1}], "xyz": [2.424683, -3.762975, 1.837468], "properties": {}}, {"name": "H", "species": [{"element": "H", "occu": 1}], "xyz": [2.411623, -3.731696, 0.066647], "properties": {}}, {"name": "H", "species": [{"element": "H", "occu": 1}], "xyz": [0.453507, -4.252205, -1.005243], "properties": {}}, {"name": "H", "species": [{"element": "H", "occu": 1}], "xyz": [-0.702892, -3.175647, -1.810257], "properties": {}}, {"name": "H", "species": [{"element": "H", "occu": 1}], "xyz": [3.190076, -1.313328, 0.1431], "properties": {}}, {"name": "H", "species": [{"element": "H", "occu": 1}], "xyz": [3.297327, -1.446578, 1.914837], "properties": {}}, {"name": "H", "species": [{"element": "H", "occu": 1}], "xyz": [-2.472978, -2.343097, -0.10168], "properties": {}}, {"name": "H", "species": [{"element": "H", "occu": 1}], "xyz": [-2.968323, -3.622634, 1.029496], "properties": {}}, {"name": "H", "species": [{"element": "H", "occu": 1}], "xyz": [5.594929, -0.988278, 1.669081], "properties": {}}, {"name": "H", "species": [{"element": "H", "occu": 1}], "xyz": [6.587721, -2.427583, 1.312521], "properties": {}}, {"name": "H", "species": [{"element": "H", "occu": 1}], "xyz": [-3.563872, -5.084969, -0.990832], "properties": {}}, {"name": "H", "species": [{"element": "H", "occu": 1}], "xyz": [6.255223, -1.976757, -1.179525], "properties": {}}]}, "smiles": "FC(F)COCCOCCOCC(F)F", "inchi": "InChI=1S/C8H14F4O3/c9-7(10)5-14-3-1-13-2-4-15-6-8(11)12/h7-8H,1-6H2", "formula_alphabetical": "C8 F4 H14 O3", "chemsys": "C-F-H-O", "energy": -938.313985356, "esp": {"1": ["F", -0.263365], "2": ["F", -0.220698], "3": ["F", -0.247123], "4": ["F", -0.282872], "5": ["O", -0.481105], "6": ["O", -0.444411], "7": ["O", -0.494424], "8": ["C", 0.171159], "9": ["C", 0.193102], "10": ["C", 0.245947], "11": ["C", 0.173416], "12": ["C", 0.02861], "13": ["C", 0.108049], "14": ["C", 0.3581], "15": ["C", 0.427854], "16": ["H", 0.006296], "17": ["H", 0.045768], "18": ["H", 0.06595], "19": ["H", 0.015], "20": ["H", 0.044119], "21": ["H", -0.026528], "22": ["H", 0.03128], "23": ["H", 0.043001], "24": ["H", 0.095043], "25": ["H", 0.102443], "26": ["H", 0.067691], "27": ["H", 0.071952], "28": ["H", 0.09145], "29": ["H", 0.074297]}, "dipole_moment": {"X": 1.1238, "Y": -0.8671, "Z": 0.4438, "Tot": 1.4872}, "functional": "B3LYP", "basis": "6-31+G*", "phase": "gas", "tag": "lis", "state": "successful", "wall_time (s)": 14.837355562951416, "version": "0.0.1", "gauss_version": "ES64L-G16RevC.01", "last_updated": "2021-09-14 21:08:16.207000", "polarizability": 111.98, "fluorinated-solvent": "151661265", "run_ids": ["61410efb33860da1e8ddca62", "61410f29b882bd28886ba1c2"]}