{"_id": "61412ac35d4a6c994ea943b7", "molecule": {"@module": "pymatgen.core.structure", "@class": "Molecule", "charge": 0, "spin_multiplicity": 1, "sites": [{"name": "F", "species": [{"element": "F", "occu": 1}], "xyz": [3.123877, -0.554025, -1.184449], "properties": {}}, {"name": "F", "species": [{"element": "F", "occu": 1}], "xyz": [1.204662, -0.118886, -0.188827], "properties": {}}, {"name": "F", "species": [{"element": "F", "occu": 1}], "xyz": [2.50181, 2.109298, -1.079266], "properties": {}}, {"name": "F", "species": [{"element": "F", "occu": 1}], "xyz": [2.377013, 2.032269, 1.099344], "properties": {}}, {"name": "F", "species": [{"element": "F", "occu": 1}], "xyz": [4.270791, 1.606752, 0.09712], "properties": {}}, {"name": "F", "species": [{"element": "F", "occu": 1}], "xyz": [4.646854, -2.218184, 3.232346], "properties": {}}, {"name": "O", "species": [{"element": "O", "occu": 1}], "xyz": [2.645307, -2.166636, 0.991662], "properties": {}}, {"name": "C", "species": [{"element": "C", "occu": 1}], "xyz": [2.560835, -0.046273, -0.049674], "properties": {}}, {"name": "C", "species": [{"element": "C", "occu": 1}], "xyz": [3.022356, -0.819345, 1.17985], "properties": {}}, {"name": "C", "species": [{"element": "C", "occu": 1}], "xyz": [2.932543, 1.459451, 0.009844], "properties": {}}, {"name": "C", "species": [{"element": "C", "occu": 1}], "xyz": [2.629546, -2.962605, 2.16813], "properties": {}}, {"name": "C", "species": [{"element": "C", "occu": 1}], "xyz": [4.010412, -3.342315, 2.665989], "properties": {}}, {"name": "H", "species": [{"element": "H", "occu": 1}], "xyz": [4.107448, -0.703849, 1.285817], "properties": {}}, {"name": "H", "species": [{"element": "H", "occu": 1}], "xyz": [2.536259, -0.382105, 2.062977], "properties": {}}, {"name": "H", "species": [{"element": "H", "occu": 1}], "xyz": [2.070228, -2.458453, 2.972045], "properties": {}}, {"name": "H", "species": [{"element": "H", "occu": 1}], "xyz": [2.092532, -3.877205, 1.892923], "properties": {}}, {"name": "H", "species": [{"element": "H", "occu": 1}], "xyz": [3.943535, -4.107629, 3.448076], "properties": {}}, {"name": "H", "species": [{"element": "H", "occu": 1}], "xyz": [4.642923, -3.695151, 1.844804], "properties": {}}]}, "smiles": "FC(F)(COCCF)C(F)(F)F", "inchi": "InChI=1S/C5H6F6O/c6-1-2-12-3-4(7,8)5(9,10)11/h1-3H2", "formula_alphabetical": "C5 F6 H6 O1", "chemsys": "C-F-H-O", "energy": -868.444147831, "esp": {"1": ["F", -0.149683], "2": ["F", -0.148249], "3": ["F", -0.149077], "4": ["F", -0.182754], "5": ["F", -0.180615], "6": ["F", -0.286477], "7": ["O", -0.295279], "8": ["C", 0.161997], "9": ["C", 0.053348], "10": ["C", 0.519198], "11": ["C", -0.059109], "12": ["C", 0.16803], "13": ["H", 0.112702], "14": ["H", 0.091281], "15": ["H", 0.111825], "16": ["H", 0.099099], "17": ["H", 0.053125], "18": ["H", 0.080637]}, "dipole_moment": {"X": -0.0061, "Y": -2.7098, "Z": 2.347, "Tot": 3.5849}, "functional": "B3LYP", "basis": "6-31+G*", "phase": "gas", "tag": "lis", "state": "successful", "wall_time (s)": 9.361761113046668, "version": "0.0.1", "gauss_version": "ES64L-G16RevC.01", "last_updated": "2021-09-14 23:05:39.202000", "polarizability": 68.92, "fluorinated-solvent": "88850831", "run_ids": ["61412aa871cae5f5108462a6", "61412abe7eb963e01c575795"]}