{"_id": "614126718fd2dffc9420c3c9", "molecule": {"@module": "pymatgen.core.structure", "@class": "Molecule", "charge": 0, "spin_multiplicity": 1, "sites": [{"name": "F", "species": [{"element": "F", "occu": 1}], "xyz": [0.944501, 0.08517, -0.08456], "properties": {}}, {"name": "F", "species": [{"element": "F", "occu": 1}], "xyz": [2.709962, 1.343916, 0.175645], "properties": {}}, {"name": "F", "species": [{"element": "F", "occu": 1}], "xyz": [4.235378, -0.48255, -1.327395], "properties": {}}, {"name": "F", "species": [{"element": "F", "occu": 1}], "xyz": [2.467252, -1.742588, -1.588199], "properties": {}}, {"name": "F", "species": [{"element": "F", "occu": 1}], "xyz": [2.536436, -2.731518, 2.912638], "properties": {}}, {"name": "F", "species": [{"element": "F", "occu": 1}], "xyz": [4.286009, -1.456225, 3.16991], "properties": {}}, {"name": "F", "species": [{"element": "F", "occu": 1}], "xyz": [2.547964, -1.198062, 4.471289], "properties": {}}, {"name": "O", "species": [{"element": "O", "occu": 1}], "xyz": [2.753163, -0.770413, 0.946474], "properties": {}}, {"name": "O", "species": [{"element": "O", "occu": 1}], "xyz": [2.427388, 0.372922, -2.371156], "properties": {}}, {"name": "C", "species": [{"element": "C", "occu": 1}], "xyz": [2.312317, 0.050566, -0.033649], "properties": {}}, {"name": "C", "species": [{"element": "C", "occu": 1}], "xyz": [2.864783, -0.441462, -1.401453], "properties": {}}, {"name": "C", "species": [{"element": "C", "occu": 1}], "xyz": [2.324386, -0.447339, 2.270733], "properties": {}}, {"name": "C", "species": [{"element": "C", "occu": 1}], "xyz": [2.851251, 0.061308, -3.731341], "properties": {}}, {"name": "C", "species": [{"element": "C", "occu": 1}], "xyz": [2.938928, -1.478438, 3.202438], "properties": {}}, {"name": "C", "species": [{"element": "C", "occu": 1}], "xyz": [2.233035, 1.110478, -4.633894], "properties": {}}, {"name": "H", "species": [{"element": "H", "occu": 1}], "xyz": [2.677916, 0.543897, 2.567813], "properties": {}}, {"name": "H", "species": [{"element": "H", "occu": 1}], "xyz": [1.235818, -0.506006, 2.356576], "properties": {}}, {"name": "H", "species": [{"element": "H", "occu": 1}], "xyz": [3.945028, 0.085336, -3.766964], "properties": {}}, {"name": "H", "species": [{"element": "H", "occu": 1}], "xyz": [2.504107, -0.946666, -3.979686], "properties": {}}, {"name": "H", "species": [{"element": "H", "occu": 1}], "xyz": [2.575898, 2.112058, -4.354978], "properties": {}}, {"name": "H", "species": [{"element": "H", "occu": 1}], "xyz": [2.524394, 0.918154, -5.672739], "properties": {}}, {"name": "H", "species": [{"element": "H", "occu": 1}], "xyz": [1.140633, 1.083841, -4.567144], "properties": {}}]}, "smiles": "FC(F)(OCC(F)(F)F)C(F)(F)OCC", "inchi": "InChI=1S/C6H7F7O2/c1-2-14-5(10,11)6(12,13)15-3-4(7,8)9/h2-3H2,1H3", "formula_alphabetical": "C6 F7 H7 O2", "chemsys": "C-F-H-O", "energy": -1082.25389287, "esp": {"1": ["F", -0.187556], "2": ["F", -0.189942], "3": ["F", -0.16786], "4": ["F", -0.169636], "5": ["F", -0.185262], "6": ["F", -0.184695], "7": ["F", -0.219771], "8": ["O", -0.258563], "9": ["O", -0.332365], "10": ["C", 0.494189], "11": ["C", 0.292674], "12": ["C", -0.177333], "13": ["C", 0.36748], "14": ["C", 0.607782], "15": ["C", -0.393363], "16": ["H", 0.16406], "17": ["H", 0.163632], "18": ["H", 0.018686], "19": ["H", 0.019594], "20": ["H", 0.12034], "21": ["H", 0.09794], "22": ["H", 0.119968]}, "dipole_moment": {"X": -0.8426, "Y": 1.6323, "Z": -2.3314, "Tot": 2.9681}, "functional": "B3LYP", "basis": "6-31+G*", "phase": "gas", "tag": "lis", "state": "successful", "wall_time (s)": 13.508674825890921, "version": "0.0.1", "gauss_version": "ES64L-G16RevC.01", "last_updated": "2021-09-14 22:47:12.996000", "polarizability": 86.15, "fluorinated-solvent": "60020183", "run_ids": ["6141264f21df856503b1eb78", "614126648933dc652e075243"]}