{"_id": "613a4f8e04b85a145e6a2285", "molecule": {"@module": "pymatgen.core.structure", "@class": "Molecule", "charge": 0, "spin_multiplicity": 1, "sites": [{"name": "F", "species": [{"element": "F", "occu": 1}], "xyz": [4.651428, 0.563793, 0.947222], "properties": {}}, {"name": "F", "species": [{"element": "F", "occu": 1}], "xyz": [4.76138, 0.045011, -1.198262], "properties": {}}, {"name": "F", "species": [{"element": "F", "occu": 1}], "xyz": [6.321749, 2.164514, -0.563352], "properties": {}}, {"name": "F", "species": [{"element": "F", "occu": 1}], "xyz": [4.590673, 2.790443, -1.793767], "properties": {}}, {"name": "O", "species": [{"element": "O", "occu": 1}], "xyz": [2.313157, 2.059691, 0.398372], "properties": {}}, {"name": "C", "species": [{"element": "C", "occu": 1}], "xyz": [0.900019, 2.358662, 0.365726], "properties": {}}, {"name": "C", "species": [{"element": "C", "occu": 1}], "xyz": [2.767283, 1.013717, -0.432909], "properties": {}}, {"name": "C", "species": [{"element": "C", "occu": 1}], "xyz": [4.282491, 0.972057, -0.310125], "properties": {}}, {"name": "C", "species": [{"element": "C", "occu": 1}], "xyz": [0.465155, 2.914456, -0.992311], "properties": {}}, {"name": "C", "species": [{"element": "C", "occu": 1}], "xyz": [0.052338, 1.169665, 0.821757], "properties": {}}, {"name": "C", "species": [{"element": "C", "occu": 1}], "xyz": [4.968645, 2.325828, -0.559557], "properties": {}}, {"name": "H", "species": [{"element": "H", "occu": 1}], "xyz": [0.820211, 3.155159, 1.113429], "properties": {}}, {"name": "H", "species": [{"element": "H", "occu": 1}], "xyz": [2.523955, 1.178249, -1.490045], "properties": {}}, {"name": "H", "species": [{"element": "H", "occu": 1}], "xyz": [2.388792, 0.029768, -0.124309], "properties": {}}, {"name": "H", "species": [{"element": "H", "occu": 1}], "xyz": [0.451663, 2.140509, -1.768846], "properties": {}}, {"name": "H", "species": [{"element": "H", "occu": 1}], "xyz": [-0.550272, 3.320601, -0.918129], "properties": {}}, {"name": "H", "species": [{"element": "H", "occu": 1}], "xyz": [1.137412, 3.71771, -1.311923], "properties": {}}, {"name": "H", "species": [{"element": "H", "occu": 1}], "xyz": [0.434515, 0.763465, 1.764418], "properties": {}}, {"name": "H", "species": [{"element": "H", "occu": 1}], "xyz": [-0.983633, 1.491445, 0.978252], "properties": {}}, {"name": "H", "species": [{"element": "H", "occu": 1}], "xyz": [0.036964, 0.367556, 0.074049], "properties": {}}, {"name": "H", "species": [{"element": "H", "occu": 1}], "xyz": [4.691187, 3.060503, 0.19812], "properties": {}}]}, "smiles": "FC(F)(COC(C)C)C(F)F", "inchi": "InChI=1S/C6H10F4O/c1-4(2)11-3-6(9,10)5(7)8/h4-5H,3H2,1-2H3", "formula_alphabetical": "C6 F4 H10 O1", "chemsys": "C-F-H-O", "energy": -709.2759737, "esp": {"1": ["F", -0.219695], "2": ["F", -0.225121], "3": ["F", -0.205428], "4": ["F", -0.199563], "5": ["O", -0.519038], "6": ["C", 0.625914], "7": ["C", -0.104168], "8": ["C", 0.448464], "9": ["C", -0.444292], "10": ["C", -0.443936], "11": ["C", 0.289294], "12": ["H", -0.02061], "13": ["H", 0.094398], "14": ["H", 0.141915], "15": ["H", 0.122733], "16": ["H", 0.098629], "17": ["H", 0.114201], "18": ["H", 0.124371], "19": ["H", 0.100716], "20": ["H", 0.103254], "21": ["H", 0.117963]}, "dipole_moment": {"X": -4.2906, "Y": 0.8335, "Z": 0.4238, "Tot": 4.3913}, "functional": "B3LYP", "basis": "6-31+G*", "phase": "gas", "tag": "lis", "state": "successful", "wall_time (s)": 10.515618094941601, "version": "0.0.1", "gauss_version": "ES64L-G16RevC.01", "last_updated": "2021-09-09 18:16:46.383000", "polarizability": 78.34, "fluorinated-solvent": "13201517", "run_ids": ["613a4a7c24026db7a08680c0", "613a4f89391fbcdbb6256514"]}