{"_id": "6141204d30ac4a4f8a601f08", "molecule": {"@module": "pymatgen.core.structure", "@class": "Molecule", "charge": 0, "spin_multiplicity": 1, "sites": [{"name": "F", "species": [{"element": "F", "occu": 1}], "xyz": [3.379655, -3.457683, -1.99554], "properties": {}}, {"name": "F", "species": [{"element": "F", "occu": 1}], "xyz": [3.930604, -2.081401, -0.361298], "properties": {}}, {"name": "F", "species": [{"element": "F", "occu": 1}], "xyz": [1.427661, 3.716461, 1.675785], "properties": {}}, {"name": "F", "species": [{"element": "F", "occu": 1}], "xyz": [0.768433, 2.256206, 0.15873], "properties": {}}, {"name": "F", "species": [{"element": "F", "occu": 1}], "xyz": [5.057496, -4.577522, -0.307347], "properties": {}}, {"name": "F", "species": [{"element": "F", "occu": 1}], "xyz": [3.871369, -4.015044, 1.458072], "properties": {}}, {"name": "F", "species": [{"element": "F", "occu": 1}], "xyz": [-1.062125, 4.138457, 0.938989], "properties": {}}, {"name": "F", "species": [{"element": "F", "occu": 1}], "xyz": [-1.650025, 2.039166, 1.234516], "properties": {}}, {"name": "F", "species": [{"element": "F", "occu": 1}], "xyz": [3.730079, -6.661731, 0.720859], "properties": {}}, {"name": "F", "species": [{"element": "F", "occu": 1}], "xyz": [1.819045, -5.617511, 0.629839], "properties": {}}, {"name": "F", "species": [{"element": "F", "occu": 1}], "xyz": [2.884605, -6.101221, -1.211569], "properties": {}}, {"name": "F", "species": [{"element": "F", "occu": 1}], "xyz": [-2.516381, 3.802136, 3.160536], "properties": {}}, {"name": "F", "species": [{"element": "F", "occu": 1}], "xyz": [-1.183818, 2.25274, 3.918414], "properties": {}}, {"name": "F", "species": [{"element": "F", "occu": 1}], "xyz": [-0.452087, 4.293247, 3.671113], "properties": {}}, {"name": "O", "species": [{"element": "O", "occu": 1}], "xyz": [1.454295, -2.63841, 0.877814], "properties": {}}, {"name": "O", "species": [{"element": "O", "occu": 1}], "xyz": [0.415696, 0.351937, 2.214834], "properties": {}}, {"name": "C", "species": [{"element": "C", "occu": 1}], "xyz": [3.181779, -3.18071, -0.668757], "properties": {}}, {"name": "C", "species": [{"element": "C", "occu": 1}], "xyz": [0.656524, 2.602428, 1.474532], "properties": {}}, {"name": "C", "species": [{"element": "C", "occu": 1}], "xyz": [-0.004967, -1.958161, 2.638779], "properties": {}}, {"name": "C", "species": [{"element": "C", "occu": 1}], "xyz": [1.70114, -2.876562, -0.480591], "properties": {}}, {"name": "C", "species": [{"element": "C", "occu": 1}], "xyz": [1.214206, 1.494194, 2.35827], "properties": {}}, {"name": "C", "species": [{"element": "C", "occu": 1}], "xyz": [3.796869, -4.359476, 0.150316], "properties": {}}, {"name": "C", "species": [{"element": "C", "occu": 1}], "xyz": [-0.833189, 3.023168, 1.680534], "properties": {}}, {"name": "C", "species": [{"element": "C", "occu": 1}], "xyz": [0.089048, -2.325026, 1.163558], "properties": {}}, {"name": "C", "species": [{"element": "C", "occu": 1}], "xyz": [0.862297, -0.758428, 2.996738], "properties": {}}, {"name": "C", "species": [{"element": "C", "occu": 1}], "xyz": [3.039304, -5.717475, 0.067502], "properties": {}}, {"name": "C", "species": [{"element": "C", "occu": 1}], "xyz": [-1.254183, 3.352443, 3.143167], "properties": {}}, {"name": "H", "species": [{"element": "H", "occu": 1}], "xyz": [-1.052286, -1.738734, 2.879813], "properties": {}}, {"name": "H", "species": [{"element": "H", "occu": 1}], "xyz": [0.308968, -2.813019, 3.250155], "properties": {}}, {"name": "H", "species": [{"element": "H", "occu": 1}], "xyz": [1.488463, -1.993619, -1.103242], "properties": {}}, {"name": "H", "species": [{"element": "H", "occu": 1}], "xyz": [1.116235, -3.724015, -0.867798], "properties": {}}, {"name": "H", "species": [{"element": "H", "occu": 1}], "xyz": [1.242989, 1.854368, 3.397326], "properties": {}}, {"name": "H", "species": [{"element": "H", "occu": 1}], "xyz": [2.248288, 1.324155, 2.020226], "properties": {}}, {"name": "H", "species": [{"element": "H", "occu": 1}], "xyz": [-0.236406, -1.480619, 0.539542], "properties": {}}, {"name": "H", "species": [{"element": "H", "occu": 1}], "xyz": [-0.546018, -3.19603, 0.938656], "properties": {}}, {"name": "H", "species": [{"element": "H", "occu": 1}], "xyz": [0.770521, -0.518387, 4.06748], "properties": {}}, {"name": "H", "species": [{"element": "H", "occu": 1}], "xyz": [1.917194, -0.970454, 2.77189], "properties": {}}]}, "smiles": "FC(F)(COCCCOCC(F)(F)C(F)(F)C(F)(F)F)C(F)(F)C(F)(F)F", "inchi": "InChI=1S/C11H10F14O2/c12-6(13,8(16,17)10(20,21)22)4-26-2-1-3-27-5-7(14,15)9(18,19)11(23,24)25/h1-5H2", "formula_alphabetical": "C11 F14 H10 O2", "chemsys": "C-F-H-O", "energy": -1973.48248291, "esp": {"1": ["F", -0.207233], "2": ["F", -0.161304], "3": ["F", -0.201685], "4": ["F", -0.158747], "5": ["F", -0.148328], "6": ["F", -0.161367], "7": ["F", -0.121565], "8": ["F", -0.137253], "9": ["F", -0.151175], "10": ["F", -0.158818], "11": ["F", -0.157878], "12": ["F", -0.130306], "13": ["F", -0.136163], "14": ["F", -0.139018], "15": ["O", -0.242914], "16": ["O", -0.2729], "17": ["C", 0.364286], "18": ["C", 0.366213], "19": ["C", -0.193225], "20": ["C", -0.128129], "21": ["C", -0.091128], "22": ["C", 0.250873], "23": ["C", 0.177609], "24": ["C", 0.123881], "25": ["C", 0.145311], "26": ["C", 0.481155], "27": ["C", 0.421438], "28": ["H", 0.08111], "29": ["H", 0.077063], "30": ["H", 0.143525], "31": ["H", 0.089732], "32": ["H", 0.087109], "33": ["H", 0.134448], "34": ["H", 0.032996], "35": ["H", 0.052383], "36": ["H", 0.049483], "37": ["H", 0.020521]}, "dipole_moment": {"X": -1.6089, "Y": -1.4023, "Z": 1.8669, "Tot": 2.8356}, "functional": "B3LYP", "basis": "6-31+G*", "phase": "gas", "tag": "lis", "state": "successful", "wall_time (s)": 49.185031750937924, "version": "0.0.1", "gauss_version": "ES64L-G16RevC.01", "last_updated": "2021-09-14 22:21:01.512000", "polarizability": 148.49, "fluorinated-solvent": "101666378", "run_ids": ["6141200ca6cf12d49710901e", "6141204552b4ced7f4f1d616"]}