{"_id": "613a4c9792d6529ca8da3d3f", "molecule": {"@module": "pymatgen.core.structure", "@class": "Molecule", "charge": 0, "spin_multiplicity": 1, "sites": [{"name": "F", "species": [{"element": "F", "occu": 1}], "xyz": [2.077026, -0.193126, -4.323374], "properties": {}}, {"name": "F", "species": [{"element": "F", "occu": 1}], "xyz": [0.19057, 0.219951, -3.292571], "properties": {}}, {"name": "F", "species": [{"element": "F", "occu": 1}], "xyz": [3.210518, 2.075319, -3.111622], "properties": {}}, {"name": "F", "species": [{"element": "F", "occu": 1}], "xyz": [1.392563, 2.459103, -4.309265], "properties": {}}, {"name": "O", "species": [{"element": "O", "occu": 1}], "xyz": [2.043114, -0.179347, -2.066008], "properties": {}}, {"name": "O", "species": [{"element": "O", "occu": 1}], "xyz": [4.090708, -2.180849, -1.1644], "properties": {}}, {"name": "C", "species": [{"element": "C", "occu": 1}], "xyz": [1.823975, -1.606679, -1.879708], "properties": {}}, {"name": "C", "species": [{"element": "C", "occu": 1}], "xyz": [2.738425, -2.077464, -0.760986], "properties": {}}, {"name": "C", "species": [{"element": "C", "occu": 1}], "xyz": [1.558502, 0.375249, -3.191715], "properties": {}}, {"name": "C", "species": [{"element": "C", "occu": 1}], "xyz": [4.909969, -1.020719, -0.946221], "properties": {}}, {"name": "C", "species": [{"element": "C", "occu": 1}], "xyz": [1.860963, 1.886564, -3.167246], "properties": {}}, {"name": "C", "species": [{"element": "C", "occu": 1}], "xyz": [5.420601, -0.939057, 0.490209], "properties": {}}, {"name": "H", "species": [{"element": "H", "occu": 1}], "xyz": [0.771163, -1.762752, -1.617263], "properties": {}}, {"name": "H", "species": [{"element": "H", "occu": 1}], "xyz": [2.061891, -2.132884, -2.808054], "properties": {}}, {"name": "H", "species": [{"element": "H", "occu": 1}], "xyz": [2.618665, -1.421755, 0.11396], "properties": {}}, {"name": "H", "species": [{"element": "H", "occu": 1}], "xyz": [2.416964, -3.085403, -0.470633], "properties": {}}, {"name": "H", "species": [{"element": "H", "occu": 1}], "xyz": [5.747394, -1.137394, -1.641409], "properties": {}}, {"name": "H", "species": [{"element": "H", "occu": 1}], "xyz": [4.365004, -0.112154, -1.228855], "properties": {}}, {"name": "H", "species": [{"element": "H", "occu": 1}], "xyz": [1.394058, 2.366624, -2.302918], "properties": {}}, {"name": "H", "species": [{"element": "H", "occu": 1}], "xyz": [5.974798, -1.84738, 0.750945], "properties": {}}, {"name": "H", "species": [{"element": "H", "occu": 1}], "xyz": [6.089096, -0.076397, 0.604408], "properties": {}}, {"name": "H", "species": [{"element": "H", "occu": 1}], "xyz": [4.59894, -0.821079, 1.206748], "properties": {}}]}, "smiles": "FC(F)(OCCOCC)C(F)F", "inchi": "InChI=1S/C6H10F4O2/c1-2-11-3-4-12-6(9,10)5(7)8/h5H,2-4H2,1H3", "formula_alphabetical": "C6 F4 H10 O2", "chemsys": "C-F-H-O", "energy": -784.493671391, "esp": {"1": ["F", -0.162544], "2": ["F", -0.205713], "3": ["F", -0.201488], "4": ["F", -0.206442], "5": ["O", -0.308287], "6": ["O", -0.496226], "7": ["C", 0.10522], "8": ["C", 0.067949], "9": ["C", 0.358035], "10": ["C", 0.506239], "11": ["C", 0.358015], "12": ["C", -0.391699], "13": ["H", 0.052923], "14": ["H", 0.100554], "15": ["H", 0.053234], "16": ["H", 0.077547], "17": ["H", -0.018973], "18": ["H", -0.069521], "19": ["H", 0.096029], "20": ["H", 0.100458], "21": ["H", 0.079624], "22": ["H", 0.105067]}, "dipole_moment": {"X": -0.672, "Y": -0.4255, "Z": 3.1432, "Tot": 3.2423}, "functional": "B3LYP", "basis": "6-31+G*", "phase": "gas", "tag": "lis", "state": "successful", "wall_time (s)": 10.730132541968487, "version": "0.0.1", "gauss_version": "ES64L-G16RevC.01", "last_updated": "2021-09-09 18:04:06.658000", "polarizability": 83.8, "fluorinated-solvent": "3020797", "run_ids": ["613a4997df08c8d06ae2f338", "613a4b6a374f90323ab39e12"]}