{"_id": "614117659e2407c5e0acccf6", "molecule": {"@module": "pymatgen.core.structure", "@class": "Molecule", "charge": 0, "spin_multiplicity": 1, "sites": [{"name": "F", "species": [{"element": "F", "occu": 1}], "xyz": [4.992216, 1.995239, 4.447273], "properties": {}}, {"name": "F", "species": [{"element": "F", "occu": 1}], "xyz": [4.669147, -0.092489, 3.791377], "properties": {}}, {"name": "O", "species": [{"element": "O", "occu": 1}], "xyz": [2.373522, 0.822998, 2.331369], "properties": {}}, {"name": "C", "species": [{"element": "C", "occu": 1}], "xyz": [0.185075, 2.011597, 2.245994], "properties": {}}, {"name": "C", "species": [{"element": "C", "occu": 1}], "xyz": [0.954027, 0.690196, 2.393593], "properties": {}}, {"name": "C", "species": [{"element": "C", "occu": 1}], "xyz": [2.952207, 1.496385, 3.427851], "properties": {}}, {"name": "C", "species": [{"element": "C", "occu": 1}], "xyz": [0.59745, 2.751577, 0.967411], "properties": {}}, {"name": "C", "species": [{"element": "C", "occu": 1}], "xyz": [-1.324265, 1.729533, 2.275772], "properties": {}}, {"name": "C", "species": [{"element": "C", "occu": 1}], "xyz": [4.451556, 1.223381, 3.424233], "properties": {}}, {"name": "C", "species": [{"element": "C", "occu": 1}], "xyz": [5.182519, 1.507202, 2.134959], "properties": {}}, {"name": "H", "species": [{"element": "H", "occu": 1}], "xyz": [0.424444, 2.648683, 3.110834], "properties": {}}, {"name": "H", "species": [{"element": "H", "occu": 1}], "xyz": [0.701044, 0.018946, 1.564683], "properties": {}}, {"name": "H", "species": [{"element": "H", "occu": 1}], "xyz": [0.673809, 0.189046, 3.335337], "properties": {}}, {"name": "H", "species": [{"element": "H", "occu": 1}], "xyz": [2.545227, 1.139657, 4.386042], "properties": {}}, {"name": "H", "species": [{"element": "H", "occu": 1}], "xyz": [2.804046, 2.584532, 3.366508], "properties": {}}, {"name": "H", "species": [{"element": "H", "occu": 1}], "xyz": [0.350246, 2.154745, 0.079059], "properties": {}}, {"name": "H", "species": [{"element": "H", "occu": 1}], "xyz": [0.074768, 3.712026, 0.884034], "properties": {}}, {"name": "H", "species": [{"element": "H", "occu": 1}], "xyz": [1.67587, 2.942006, 0.947739], "properties": {}}, {"name": "H", "species": [{"element": "H", "occu": 1}], "xyz": [-1.623213, 1.217242, 3.198992], "properties": {}}, {"name": "H", "species": [{"element": "H", "occu": 1}], "xyz": [-1.896623, 2.662119, 2.209486], "properties": {}}, {"name": "H", "species": [{"element": "H", "occu": 1}], "xyz": [-1.620332, 1.09681, 1.428196], "properties": {}}, {"name": "H", "species": [{"element": "H", "occu": 1}], "xyz": [5.069835, 2.562432, 1.868924], "properties": {}}, {"name": "H", "species": [{"element": "H", "occu": 1}], "xyz": [6.243341, 1.276982, 2.266453], "properties": {}}, {"name": "H", "species": [{"element": "H", "occu": 1}], "xyz": [4.763032, 0.888886, 1.33821], "properties": {}}]}, "smiles": "FC(F)(COCC(C)C)C", "inchi": "InChI=1S/C7H14F2O/c1-6(2)4-10-5-7(3,8)9/h6H,4-5H2,1-3H3", "formula_alphabetical": "C7 F2 H14 O1", "chemsys": "C-F-H-O", "energy": -550.113308892, "esp": {"1": ["F", -0.313117], "2": ["F", -0.274621], "3": ["O", -0.323351], "4": ["C", 0.462995], "5": ["C", -0.139629], "6": ["C", -0.090304], "7": ["C", -0.393464], "8": ["C", -0.471956], "9": ["C", 0.655743], "10": ["C", -0.439085], "11": ["H", -0.042515], "12": ["H", 0.107102], "13": ["H", 0.089771], "14": ["H", 0.098735], "15": ["H", 0.081392], "16": ["H", 0.092502], "17": ["H", 0.082134], "18": ["H", 0.098867], "19": ["H", 0.091269], "20": ["H", 0.118159], "21": ["H", 0.10765], "22": ["H", 0.131531], "23": ["H", 0.144222], "24": ["H", 0.125971]}, "dipole_moment": {"X": -2.2279, "Y": 1.316, "Z": -1.2913, "Tot": 2.8919}, "functional": "B3LYP", "basis": "6-31+G*", "phase": "gas", "tag": "lis", "state": "successful", "wall_time (s)": 10.123623635969125, "version": "0.0.1", "gauss_version": "ES64L-G16RevC.01", "last_updated": "2021-09-14 21:43:01.222000", "polarizability": 89.32, "fluorinated-solvent": "118121704", "run_ids": ["614117422306c1ee27ce27d4", "6141175b4ae51c98a5bd8e69"]}