{"_id": "613a526c4ca4fa4288530910", "molecule": {"@module": "pymatgen.core.structure", "@class": "Molecule", "charge": 0, "spin_multiplicity": 1, "sites": [{"name": "F", "species": [{"element": "F", "occu": 1}], "xyz": [4.06606, -0.367611, 3.879614], "properties": {}}, {"name": "F", "species": [{"element": "F", "occu": 1}], "xyz": [1.962978, -0.757624, 3.421783], "properties": {}}, {"name": "F", "species": [{"element": "F", "occu": 1}], "xyz": [2.877023, 1.150832, 2.874138], "properties": {}}, {"name": "F", "species": [{"element": "F", "occu": 1}], "xyz": [4.492046, -0.930988, -3.112396], "properties": {}}, {"name": "O", "species": [{"element": "O", "occu": 1}], "xyz": [3.380937, -0.744366, 1.769699], "properties": {}}, {"name": "O", "species": [{"element": "O", "occu": 1}], "xyz": [3.662057, -0.292771, -1.071742], "properties": {}}, {"name": "C", "species": [{"element": "C", "occu": 1}], "xyz": [4.588795, -0.267874, 1.125179], "properties": {}}, {"name": "C", "species": [{"element": "C", "occu": 1}], "xyz": [4.65383, -0.90239, -0.243317], "properties": {}}, {"name": "C", "species": [{"element": "C", "occu": 1}], "xyz": [3.08163, -0.191125, 2.953341], "properties": {}}, {"name": "C", "species": [{"element": "C", "occu": 1}], "xyz": [3.387075, -0.963607, -2.239839], "properties": {}}, {"name": "H", "species": [{"element": "H", "occu": 1}], "xyz": [4.55253, 0.822565, 1.040805], "properties": {}}, {"name": "H", "species": [{"element": "H", "occu": 1}], "xyz": [5.454776, -0.56841, 1.724554], "properties": {}}, {"name": "H", "species": [{"element": "H", "occu": 1}], "xyz": [5.651249, -0.738183, -0.670095], "properties": {}}, {"name": "H", "species": [{"element": "H", "occu": 1}], "xyz": [4.476272, -1.985146, -0.166328], "properties": {}}, {"name": "H", "species": [{"element": "H", "occu": 1}], "xyz": [3.170251, -2.027936, -2.071747], "properties": {}}, {"name": "H", "species": [{"element": "H", "occu": 1}], "xyz": [2.56351, -0.442636, -2.731019], "properties": {}}]}, "smiles": "FC(F)(F)OCCOCF", "inchi": "InChI=1S/C4H6F4O2/c5-3-9-1-2-10-4(6,7)8/h1-3H2", "formula_alphabetical": "C4 F4 H6 O2", "chemsys": "C-F-H-O", "energy": -705.881958492, "esp": {"1": ["F", -0.227498], "2": ["F", -0.199458], "3": ["F", -0.223354], "4": ["F", -0.271294], "5": ["O", -0.368993], "6": ["O", -0.339389], "7": ["C", 0.013072], "8": ["C", 0.106782], "9": ["C", 0.751308], "10": ["C", 0.226093], "11": ["H", 0.114464], "12": ["H", 0.086783], "13": ["H", 0.07412], "14": ["H", 0.086161], "15": ["H", 0.06463], "16": ["H", 0.106575]}, "dipole_moment": {"X": 1.1629, "Y": -0.999, "Z": -0.7879, "Tot": 1.7237}, "functional": "B3LYP", "basis": "6-31+G*", "phase": "gas", "tag": "lis", "state": "successful", "wall_time (s)": 12.271713897935115, "version": "0.0.1", "gauss_version": "ES64L-G16RevC.01", "last_updated": "2021-09-09 18:29:00.214000", "polarizability": 60.59, "fluorinated-solvent": "21024143", "run_ids": ["613a4ab1365ab5427e4bd905", "613a5262d0596c0772750342"]}