{"_id": "6141256bde861054ddfeb69c", "molecule": {"@module": "pymatgen.core.structure", "@class": "Molecule", "charge": 0, "spin_multiplicity": 1, "sites": [{"name": "F", "species": [{"element": "F", "occu": 1}], "xyz": [1.508238, -1.38474, 0.363219], "properties": {}}, {"name": "F", "species": [{"element": "F", "occu": 1}], "xyz": [0.300861, 0.203045, -0.560355], "properties": {}}, {"name": "F", "species": [{"element": "F", "occu": 1}], "xyz": [3.503042, 2.69884, 0.873169], "properties": {}}, {"name": "F", "species": [{"element": "F", "occu": 1}], "xyz": [2.091074, 4.099861, 1.848199], "properties": {}}, {"name": "F", "species": [{"element": "F", "occu": 1}], "xyz": [2.469908, -1.735499, -2.231045], "properties": {}}, {"name": "F", "species": [{"element": "F", "occu": 1}], "xyz": [1.565586, 0.084302, -3.022726], "properties": {}}, {"name": "F", "species": [{"element": "F", "occu": 1}], "xyz": [3.736338, -0.115269, -2.960572], "properties": {}}, {"name": "O", "species": [{"element": "O", "occu": 1}], "xyz": [1.589815, 0.598815, 1.246287], "properties": {}}, {"name": "C", "species": [{"element": "C", "occu": 1}], "xyz": [1.508779, -0.065267, 0.044536], "properties": {}}, {"name": "C", "species": [{"element": "C", "occu": 1}], "xyz": [2.662649, 0.250593, -0.906776], "properties": {}}, {"name": "C", "species": [{"element": "C", "occu": 1}], "xyz": [1.282411, 1.997518, 1.269078], "properties": {}}, {"name": "C", "species": [{"element": "C", "occu": 1}], "xyz": [2.480257, 2.772467, 1.810494], "properties": {}}, {"name": "C", "species": [{"element": "C", "occu": 1}], "xyz": [2.591173, -0.39205, -2.282101], "properties": {}}, {"name": "C", "species": [{"element": "C", "occu": 1}], "xyz": [3.010622, 2.350951, 3.157427], "properties": {}}, {"name": "H", "species": [{"element": "H", "occu": 1}], "xyz": [2.73017, 1.330113, -1.052322], "properties": {}}, {"name": "H", "species": [{"element": "H", "occu": 1}], "xyz": [3.584609, -0.079722, -0.423416], "properties": {}}, {"name": "H", "species": [{"element": "H", "occu": 1}], "xyz": [1.02926, 2.381412, 0.277337], "properties": {}}, {"name": "H", "species": [{"element": "H", "occu": 1}], "xyz": [0.425107, 2.145908, 1.931157], "properties": {}}, {"name": "H", "species": [{"element": "H", "occu": 1}], "xyz": [2.233193, 2.474927, 3.916844], "properties": {}}, {"name": "H", "species": [{"element": "H", "occu": 1}], "xyz": [3.313666, 1.301796, 3.121569], "properties": {}}, {"name": "H", "species": [{"element": "H", "occu": 1}], "xyz": [3.870679, 2.975199, 3.413729], "properties": {}}]}, "smiles": "FC(F)(OCC(F)(F)C)CC(F)(F)F", "inchi": "InChI=1S/C6H7F7O/c1-4(7,8)3-14-6(12,13)2-5(9,10)11/h2-3H2,1H3", "formula_alphabetical": "C6 F7 H7 O1", "chemsys": "C-F-H-O", "energy": -1007.04302144, "esp": {"1": ["F", -0.241728], "2": ["F", -0.238501], "3": ["F", -0.284045], "4": ["F", -0.291484], "5": ["F", -0.192122], "6": ["F", -0.205954], "7": ["F", -0.218289], "8": ["O", -0.396308], "9": ["C", 0.754102], "10": ["C", -0.51305], "11": ["C", -0.066161], "12": ["C", 0.63944], "13": ["C", 0.637889], "14": ["C", -0.445175], "15": ["H", 0.208959], "16": ["H", 0.198843], "17": ["H", 0.096153], "18": ["H", 0.12765], "19": ["H", 0.138397], "20": ["H", 0.137032], "21": ["H", 0.154353]}, "dipole_moment": {"X": 0.4898, "Y": 1.6297, "Z": 3.0464, "Tot": 3.4895}, "functional": "B3LYP", "basis": "6-31+G*", "phase": "gas", "tag": "lis", "state": "successful", "wall_time (s)": 13.65891716000624, "version": "0.0.1", "gauss_version": "ES64L-G16RevC.01", "last_updated": "2021-09-14 22:42:51.129000", "polarizability": 79.98, "fluorinated-solvent": "58114559", "run_ids": ["61412544f7319d7509688365", "614125638edb79cd0b8299b0"]}