{"_id": "61411b88d058137d6a84abdd", "molecule": {"@module": "pymatgen.core.structure", "@class": "Molecule", "charge": 0, "spin_multiplicity": 1, "sites": [{"name": "F", "species": [{"element": "F", "occu": 1}], "xyz": [5.095762, -1.340064, 2.070602], "properties": {}}, {"name": "F", "species": [{"element": "F", "occu": 1}], "xyz": [5.318092, -3.273369, 3.138135], "properties": {}}, {"name": "F", "species": [{"element": "F", "occu": 1}], "xyz": [0.387997, -4.451732, -2.087091], "properties": {}}, {"name": "F", "species": [{"element": "F", "occu": 1}], "xyz": [2.082347, -5.230637, -3.290858], "properties": {}}, {"name": "O", "species": [{"element": "O", "occu": 1}], "xyz": [2.638614, -2.750541, 0.000565], "properties": {}}, {"name": "C", "species": [{"element": "C", "occu": 1}], "xyz": [2.38419, -2.0362, 1.205205], "properties": {}}, {"name": "C", "species": [{"element": "C", "occu": 1}], "xyz": [1.994804, -2.191343, -1.139172], "properties": {}}, {"name": "C", "species": [{"element": "C", "occu": 1}], "xyz": [3.170466, -2.703943, 2.325774], "properties": {}}, {"name": "C", "species": [{"element": "C", "occu": 1}], "xyz": [2.305536, -3.076356, -2.339168], "properties": {}}, {"name": "C", "species": [{"element": "C", "occu": 1}], "xyz": [4.665145, -2.654219, 2.09274], "properties": {}}, {"name": "C", "species": [{"element": "C", "occu": 1}], "xyz": [1.767877, -4.481749, -2.176039], "properties": {}}, {"name": "H", "species": [{"element": "H", "occu": 1}], "xyz": [1.307953, -2.055451, 1.438128], "properties": {}}, {"name": "H", "species": [{"element": "H", "occu": 1}], "xyz": [2.690758, -0.984639, 1.093807], "properties": {}}, {"name": "H", "species": [{"element": "H", "occu": 1}], "xyz": [0.907926, -2.137574, -0.971825], "properties": {}}, {"name": "H", "species": [{"element": "H", "occu": 1}], "xyz": [2.363484, -1.169507, -1.320404], "properties": {}}, {"name": "H", "species": [{"element": "H", "occu": 1}], "xyz": [2.873906, -3.754965, 2.414307], "properties": {}}, {"name": "H", "species": [{"element": "H", "occu": 1}], "xyz": [2.959859, -2.20658, 3.279564], "properties": {}}, {"name": "H", "species": [{"element": "H", "occu": 1}], "xyz": [1.863105, -2.647755, -3.245806], "properties": {}}, {"name": "H", "species": [{"element": "H", "occu": 1}], "xyz": [3.389645, -3.140713, -2.484072], "properties": {}}, {"name": "H", "species": [{"element": "H", "occu": 1}], "xyz": [4.997065, -3.122597, 1.163438], "properties": {}}, {"name": "H", "species": [{"element": "H", "occu": 1}], "xyz": [2.140537, -5.012764, -1.297238], "properties": {}}]}, "smiles": "FC(F)CCOCCC(F)F", "inchi": "InChI=1S/C6H10F4O/c7-5(8)1-3-11-4-2-6(9)10/h5-6H,1-4H2", "formula_alphabetical": "C6 F4 H10 O1", "chemsys": "C-F-H-O", "energy": -709.287299202, "esp": {"1": ["F", -0.266828], "2": ["F", -0.287445], "3": ["F", -0.272946], "4": ["F", -0.29236], "5": ["O", -0.367802], "6": ["C", 0.149442], "7": ["C", 0.166073], "8": ["C", -0.286043], "9": ["C", -0.328951], "10": ["C", 0.53752], "11": ["C", 0.573042], "12": ["H", 0.045808], "13": ["H", 0.026938], "14": ["H", 0.027635], "15": ["H", 0.046324], "16": ["H", 0.108653], "17": ["H", 0.122778], "18": ["H", 0.129957], "19": ["H", 0.116909], "20": ["H", 0.030769], "21": ["H", 0.020528]}, "dipole_moment": {"X": -1.161, "Y": 1.6437, "Z": 0.086, "Tot": 2.0142}, "functional": "B3LYP", "basis": "6-31+G*", "phase": "gas", "tag": "lis", "state": "successful", "wall_time (s)": 9.357873787987046, "version": "0.0.1", "gauss_version": "ES64L-G16RevC.01", "last_updated": "2021-09-14 22:00:39.952000", "polarizability": 78.57, "fluorinated-solvent": "119097730", "run_ids": ["61411b6175702eed44edec8e", "61411b81ed497cf45a349219"]}