{"_id": "613a4efa8ba4be743e858672", "molecule": {"@module": "pymatgen.core.structure", "@class": "Molecule", "charge": 0, "spin_multiplicity": 1, "sites": [{"name": "F", "species": [{"element": "F", "occu": 1}], "xyz": [1.285978, -0.702193, 0.076157], "properties": {}}, {"name": "F", "species": [{"element": "F", "occu": 1}], "xyz": [3.400241, -1.219902, 0.261052], "properties": {}}, {"name": "F", "species": [{"element": "F", "occu": 1}], "xyz": [0.93637, 2.178368, 0.218876], "properties": {}}, {"name": "F", "species": [{"element": "F", "occu": 1}], "xyz": [2.077293, 3.075093, 1.842187], "properties": {}}, {"name": "F", "species": [{"element": "F", "occu": 1}], "xyz": [2.970735, 2.889608, -0.125599], "properties": {}}, {"name": "F", "species": [{"element": "F", "occu": 1}], "xyz": [0.871247, 0.546905, 2.612349], "properties": {}}, {"name": "F", "species": [{"element": "F", "occu": 1}], "xyz": [2.502636, -0.891444, 2.726783], "properties": {}}, {"name": "F", "species": [{"element": "F", "occu": 1}], "xyz": [2.77861, 1.114546, 3.507219], "properties": {}}, {"name": "F", "species": [{"element": "F", "occu": 1}], "xyz": [4.542056, 0.378515, -3.486322], "properties": {}}, {"name": "O", "species": [{"element": "O", "occu": 1}], "xyz": [2.80109, 0.396192, -1.176205], "properties": {}}, {"name": "C", "species": [{"element": "C", "occu": 1}], "xyz": [2.744311, 0.888303, 1.144389], "properties": {}}, {"name": "C", "species": [{"element": "C", "occu": 1}], "xyz": [2.550597, -0.160995, 0.024194], "properties": {}}, {"name": "C", "species": [{"element": "C", "occu": 1}], "xyz": [2.166139, 2.270292, 0.761566], "properties": {}}, {"name": "C", "species": [{"element": "C", "occu": 1}], "xyz": [2.206561, 0.403909, 2.509802], "properties": {}}, {"name": "C", "species": [{"element": "C", "occu": 1}], "xyz": [2.621522, -0.448811, -2.337814], "properties": {}}, {"name": "C", "species": [{"element": "C", "occu": 1}], "xyz": [3.144958, 0.311814, -3.531202], "properties": {}}, {"name": "H", "species": [{"element": "H", "occu": 1}], "xyz": [3.822117, 1.022533, 1.262855], "properties": {}}, {"name": "H", "species": [{"element": "H", "occu": 1}], "xyz": [3.173923, -1.383658, -2.204403], "properties": {}}, {"name": "H", "species": [{"element": "H", "occu": 1}], "xyz": [1.553987, -0.661185, -2.46451], "properties": {}}, {"name": "H", "species": [{"element": "H", "occu": 1}], "xyz": [2.86362, -0.208047, -4.45414], "properties": {}}, {"name": "H", "species": [{"element": "H", "occu": 1}], "xyz": [2.761219, 1.337055, -3.545252], "properties": {}}]}, "smiles": "FC(F)(OCCF)C(C(F)(F)F)C(F)(F)F", "inchi": "InChI=1S/C6H5F9O/c7-1-2-16-6(14,15)3(4(8,9)10)5(11,12)13/h3H,1-2H2", "formula_alphabetical": "C6 F9 H5 O1", "chemsys": "C-F-H-O", "energy": -1205.51269198, "esp": {"1": ["F", -0.155694], "2": ["F", -0.170741], "3": ["F", -0.162086], "4": ["F", -0.170999], "5": ["F", -0.188416], "6": ["F", -0.151712], "7": ["F", -0.155652], "8": ["F", -0.177098], "9": ["F", -0.270742], "10": ["O", -0.197857], "11": ["C", -0.382563], "12": ["C", 0.358325], "13": ["C", 0.563253], "14": ["C", 0.532532], "15": ["C", -0.035684], "16": ["C", 0.166352], "17": ["H", 0.241043], "18": ["H", 0.128998], "19": ["H", 0.090494], "20": ["H", 0.061458], "21": ["H", 0.076787]}, "dipole_moment": {"X": -0.4689, "Y": -0.7858, "Z": -2.6832, "Tot": 2.8349}, "functional": "B3LYP", "basis": "6-31+G*", "phase": "gas", "tag": "lis", "state": "successful", "wall_time (s)": 15.473062479053624, "version": "0.0.1", "gauss_version": "ES64L-G16RevC.01", "last_updated": "2021-09-09 18:14:17.762000", "polarizability": 82.06, "fluorinated-solvent": "23233260", "run_ids": ["613a4a5345f1cd5524ed0faf", "613a4ef48733d114d78b7396"]}