{"_id": "6141217fe0a93ba2d33c0aa3", "molecule": {"@module": "pymatgen.core.structure", "@class": "Molecule", "charge": 0, "spin_multiplicity": 1, "sites": [{"name": "F", "species": [{"element": "F", "occu": 1}], "xyz": [1.03558, -0.333545, -0.18824], "properties": {}}, {"name": "F", "species": [{"element": "F", "occu": 1}], "xyz": [2.882528, -1.210014, -0.960808], "properties": {}}, {"name": "F", "species": [{"element": "F", "occu": 1}], "xyz": [4.220702, -0.492796, 1.404879], "properties": {}}, {"name": "F", "species": [{"element": "F", "occu": 1}], "xyz": [2.379549, 0.392656, 2.184309], "properties": {}}, {"name": "F", "species": [{"element": "F", "occu": 1}], "xyz": [2.177373, 3.717342, -1.181263], "properties": {}}, {"name": "O", "species": [{"element": "O", "occu": 1}], "xyz": [2.84709, 0.982492, -0.442443], "properties": {}}, {"name": "O", "species": [{"element": "O", "occu": 1}], "xyz": [2.403357, -1.803137, 1.669754], "properties": {}}, {"name": "C", "species": [{"element": "C", "occu": 1}], "xyz": [2.401845, -0.242816, -0.110388], "properties": {}}, {"name": "C", "species": [{"element": "C", "occu": 1}], "xyz": [2.84923, -0.582385, 1.33958], "properties": {}}, {"name": "C", "species": [{"element": "C", "occu": 1}], "xyz": [2.548517, 1.434709, -1.781654], "properties": {}}, {"name": "C", "species": [{"element": "C", "occu": 1}], "xyz": [2.724598, -2.278961, 3.008361], "properties": {}}, {"name": "C", "species": [{"element": "C", "occu": 1}], "xyz": [3.022075, 2.862792, -1.898437], "properties": {}}, {"name": "C", "species": [{"element": "C", "occu": 1}], "xyz": [2.128301, -3.667062, 3.13492], "properties": {}}, {"name": "H", "species": [{"element": "H", "occu": 1}], "xyz": [3.082528, 0.805392, -2.50344], "properties": {}}, {"name": "H", "species": [{"element": "H", "occu": 1}], "xyz": [1.470913, 1.372873, -1.962736], "properties": {}}, {"name": "H", "species": [{"element": "H", "occu": 1}], "xyz": [3.813538, -2.291528, 3.121037], "properties": {}}, {"name": "H", "species": [{"element": "H", "occu": 1}], "xyz": [2.295425, -1.583348, 3.736617], "properties": {}}, {"name": "H", "species": [{"element": "H", "occu": 1}], "xyz": [4.033636, 2.976212, -1.495177], "properties": {}}, {"name": "H", "species": [{"element": "H", "occu": 1}], "xyz": [2.998571, 3.17545, -2.94886], "properties": {}}, {"name": "H", "species": [{"element": "H", "occu": 1}], "xyz": [2.55531, -4.341649, 2.385774], "properties": {}}, {"name": "H", "species": [{"element": "H", "occu": 1}], "xyz": [2.343125, -4.069969, 4.131291], "properties": {}}, {"name": "H", "species": [{"element": "H", "occu": 1}], "xyz": [1.0426, -3.63561, 2.997612], "properties": {}}]}, "smiles": "FC(F)(OCCF)C(F)(F)OCC", "inchi": "InChI=1S/C6H9F5O2/c1-2-12-5(8,9)6(10,11)13-4-3-7/h2-4H2,1H3", "formula_alphabetical": "C6 F5 H9 O2", "chemsys": "C-F-H-O", "energy": -883.752587166, "esp": {"1": ["F", -0.188584], "2": ["F", -0.194989], "3": ["F", -0.195517], "4": ["F", -0.186197], "5": ["F", -0.258104], "6": ["O", -0.27849], "7": ["O", -0.336903], "8": ["C", 0.42189], "9": ["C", 0.381362], "10": ["C", 0.057073], "11": ["C", 0.33063], "12": ["C", 0.118451], "13": ["C", -0.366306], "14": ["H", 0.071367], "15": ["H", 0.109562], "16": ["H", 0.022618], "17": ["H", 0.025562], "18": ["H", 0.084417], "19": ["H", 0.062668], "20": ["H", 0.112978], "21": ["H", 0.091743], "22": ["H", 0.114771]}, "dipole_moment": {"X": 1.0408, "Y": -1.601, "Z": -0.7324, "Tot": 2.0452}, "functional": "B3LYP", "basis": "6-31+G*", "phase": "gas", "tag": "lis", "state": "successful", "wall_time (s)": 11.38412095210515, "version": "0.0.1", "gauss_version": "ES64L-G16RevC.01", "last_updated": "2021-09-14 22:26:06.790000", "polarizability": 84.66, "fluorinated-solvent": "89766341", "run_ids": ["61412158771a60b60a7be5e9", "6141217a780f39f7a5cce7dd"]}