{"_id": "61412253599124583f74ef55", "molecule": {"@module": "pymatgen.core.structure", "@class": "Molecule", "charge": 0, "spin_multiplicity": 1, "sites": [{"name": "F", "species": [{"element": "F", "occu": 1}], "xyz": [2.553304, -3.248023, 0.505015], "properties": {}}, {"name": "F", "species": [{"element": "F", "occu": 1}], "xyz": [1.214361, -1.71044, -0.298903], "properties": {}}, {"name": "O", "species": [{"element": "O", "occu": 1}], "xyz": [3.11577, -1.074434, 0.737168], "properties": {}}, {"name": "C", "species": [{"element": "C", "occu": 1}], "xyz": [3.062983, 0.327488, 2.683285], "properties": {}}, {"name": "C", "species": [{"element": "C", "occu": 1}], "xyz": [2.56032, -0.973772, 2.074518], "properties": {}}, {"name": "C", "species": [{"element": "C", "occu": 1}], "xyz": [2.657324, 1.593524, 1.910237], "properties": {}}, {"name": "C", "species": [{"element": "C", "occu": 1}], "xyz": [2.564124, -1.990452, -0.091975], "properties": {}}, {"name": "C", "species": [{"element": "C", "occu": 1}], "xyz": [3.279005, -2.044907, -1.42635], "properties": {}}, {"name": "C", "species": [{"element": "C", "occu": 1}], "xyz": [1.14122, 1.800175, 1.797176], "properties": {}}, {"name": "C", "species": [{"element": "C", "occu": 1}], "xyz": [4.757024, -2.424773, -1.29888], "properties": {}}, {"name": "H", "species": [{"element": "H", "occu": 1}], "xyz": [2.673771, 0.377007, 3.710765], "properties": {}}, {"name": "H", "species": [{"element": "H", "occu": 1}], "xyz": [4.157202, 0.278171, 2.7607], "properties": {}}, {"name": "H", "species": [{"element": "H", "occu": 1}], "xyz": [1.468448, -0.996653, 2.010221], "properties": {}}, {"name": "H", "species": [{"element": "H", "occu": 1}], "xyz": [2.895407, -1.8401, 2.654636], "properties": {}}, {"name": "H", "species": [{"element": "H", "occu": 1}], "xyz": [3.106491, 2.459931, 2.414185], "properties": {}}, {"name": "H", "species": [{"element": "H", "occu": 1}], "xyz": [3.097915, 1.553412, 0.906416], "properties": {}}, {"name": "H", "species": [{"element": "H", "occu": 1}], "xyz": [2.736291, -2.767644, -2.04437], "properties": {}}, {"name": "H", "species": [{"element": "H", "occu": 1}], "xyz": [3.163898, -1.05868, -1.888626], "properties": {}}, {"name": "H", "species": [{"element": "H", "occu": 1}], "xyz": [0.664915, 1.798624, 2.786914], "properties": {}}, {"name": "H", "species": [{"element": "H", "occu": 1}], "xyz": [0.912668, 2.760173, 1.319381], "properties": {}}, {"name": "H", "species": [{"element": "H", "occu": 1}], "xyz": [0.668503, 1.01559, 1.19505], "properties": {}}, {"name": "H", "species": [{"element": "H", "occu": 1}], "xyz": [4.869829, -3.409388, -0.833097], "properties": {}}, {"name": "H", "species": [{"element": "H", "occu": 1}], "xyz": [5.222981, -2.460538, -2.289562], "properties": {}}, {"name": "H", "species": [{"element": "H", "occu": 1}], "xyz": [5.297348, -1.69305, -0.690222], "properties": {}}]}, "smiles": "FC(F)(OCCCC)CC", "inchi": "InChI=1S/C7H14F2O/c1-3-5-6-10-7(8,9)4-2/h3-6H2,1-2H3", "formula_alphabetical": "C7 F2 H14 O1", "chemsys": "C-F-H-O", "energy": -550.130127973, "esp": {"1": ["F", -0.248297], "2": ["F", -0.272667], "3": ["O", -0.276041], "4": ["C", -0.206261], "5": ["C", 0.094254], "6": ["C", 0.243782], "7": ["C", 0.509035], "8": ["C", -0.067722], "9": ["C", -0.266279], "10": ["C", -0.157775], "11": ["H", 0.063998], "12": ["H", 0.059226], "13": ["H", 0.067425], "14": ["H", 0.058485], "15": ["H", -0.032757], "16": ["H", -0.042033], "17": ["H", 0.067034], "18": ["H", 0.062575], "19": ["H", 0.05482], "20": ["H", 0.056705], "21": ["H", 0.076386], "22": ["H", 0.058804], "23": ["H", 0.058147], "24": ["H", 0.039155]}, "dipole_moment": {"X": 1.1442, "Y": 1.058, "Z": 0.2916, "Tot": 1.5854}, "functional": "B3LYP", "basis": "6-31+G*", "phase": "gas", "tag": "lis", "state": "successful", "wall_time (s)": 9.921824652934447, "version": "0.0.1", "gauss_version": "ES64L-G16RevC.01", "last_updated": "2021-09-14 22:29:39.366000", "polarizability": 88.12, "fluorinated-solvent": "88900269", "run_ids": ["61412238a910b17d488fa9e5", "6141224e3d7b406f93e32557"]}