{"_id": "61410fbbfe53faef1b5b1992", "molecule": {"@module": "pymatgen.core.structure", "@class": "Molecule", "charge": 0, "spin_multiplicity": 1, "sites": [{"name": "F", "species": [{"element": "F", "occu": 1}], "xyz": [2.958889, 1.73491, 2.936431], "properties": {}}, {"name": "F", "species": [{"element": "F", "occu": 1}], "xyz": [1.329081, 0.470611, 2.212532], "properties": {}}, {"name": "F", "species": [{"element": "F", "occu": 1}], "xyz": [0.333178, 2.205476, -2.945856], "properties": {}}, {"name": "F", "species": [{"element": "F", "occu": 1}], "xyz": [0.635505, 0.070786, -3.296952], "properties": {}}, {"name": "F", "species": [{"element": "F", "occu": 1}], "xyz": [0.11944, 0.786889, -1.301701], "properties": {}}, {"name": "F", "species": [{"element": "F", "occu": 1}], "xyz": [3.199128, -0.898958, 3.658096], "properties": {}}, {"name": "F", "species": [{"element": "F", "occu": 1}], "xyz": [3.172049, -1.529628, 1.568813], "properties": {}}, {"name": "F", "species": [{"element": "F", "occu": 1}], "xyz": [4.793907, -0.268337, 2.308844], "properties": {}}, {"name": "O", "species": [{"element": "O", "occu": 1}], "xyz": [2.94477, 1.10427, 0.770294], "properties": {}}, {"name": "C", "species": [{"element": "C", "occu": 1}], "xyz": [2.687092, 2.415581, -1.211284], "properties": {}}, {"name": "C", "species": [{"element": "C", "occu": 1}], "xyz": [2.332839, 1.215824, -2.10484], "properties": {}}, {"name": "C", "species": [{"element": "C", "occu": 1}], "xyz": [2.2668, 2.283694, 0.245497], "properties": {}}, {"name": "C", "species": [{"element": "C", "occu": 1}], "xyz": [2.657626, 0.749224, 2.030714], "properties": {}}, {"name": "C", "species": [{"element": "C", "occu": 1}], "xyz": [0.857365, 1.070458, -2.408564], "properties": {}}, {"name": "C", "species": [{"element": "C", "occu": 1}], "xyz": [3.476912, -0.519328, 2.401164], "properties": {}}, {"name": "H", "species": [{"element": "H", "occu": 1}], "xyz": [2.236864, 3.330848, -1.613281], "properties": {}}, {"name": "H", "species": [{"element": "H", "occu": 1}], "xyz": [3.773997, 2.551641, -1.245491], "properties": {}}, {"name": "H", "species": [{"element": "H", "occu": 1}], "xyz": [2.834594, 1.31562, -3.072535], "properties": {}}, {"name": "H", "species": [{"element": "H", "occu": 1}], "xyz": [2.667416, 0.2784, -1.650885], "properties": {}}, {"name": "H", "species": [{"element": "H", "occu": 1}], "xyz": [1.189136, 2.147775, 0.358489], "properties": {}}, {"name": "H", "species": [{"element": "H", "occu": 1}], "xyz": [2.589801, 3.155343, 0.822673], "properties": {}}]}, "smiles": "FC(F)(OCCCC(F)(F)F)C(F)(F)F", "inchi": "InChI=1S/C6H6F8O/c7-4(8,9)2-1-3-15-6(13,14)5(10,11)12/h1-3H2", "formula_alphabetical": "C6 F8 H6 O1", "chemsys": "C-F-H-O", "energy": -1106.28646293, "esp": {"1": ["F", -0.147681], "2": ["F", -0.141533], "3": ["F", -0.219579], "4": ["F", -0.228454], "5": ["F", -0.201579], "6": ["F", -0.146722], "7": ["F", -0.147302], "8": ["F", -0.154708], "9": ["O", -0.277069], "10": ["C", -0.097323], "11": ["C", -0.148923], "12": ["C", 0.133074], "13": ["C", 0.241629], "14": ["C", 0.599836], "15": ["C", 0.476039], "16": ["H", 0.056542], "17": ["H", 0.080916], "18": ["H", 0.093509], "19": ["H", 0.086085], "20": ["H", 0.073297], "21": ["H", 0.069947]}, "dipole_moment": {"X": 1.6382, "Y": 2.3555, "Z": -1.4948, "Tot": 3.2352}, "functional": "B3LYP", "basis": "6-31+G*", "phase": "gas", "tag": "lis", "state": "successful", "wall_time (s)": 14.97826561902184, "version": "0.0.1", "gauss_version": "ES64L-G16RevC.01", "last_updated": "2021-09-14 21:10:19.571000", "polarizability": 81.14, "fluorinated-solvent": "87508561", "run_ids": ["61410f8d4734f8f23fb48b06", "61410faf53eab86fb801a4b2"]}