{"_id": "614113107485aa143bf40bed", "molecule": {"@module": "pymatgen.core.structure", "@class": "Molecule", "charge": 0, "spin_multiplicity": 1, "sites": [{"name": "F", "species": [{"element": "F", "occu": 1}], "xyz": [0.973087, -0.281531, -0.008946], "properties": {}}, {"name": "F", "species": [{"element": "F", "occu": 1}], "xyz": [2.757762, -1.441693, -0.495587], "properties": {}}, {"name": "F", "species": [{"element": "F", "occu": 1}], "xyz": [2.324722, 1.064897, 1.970949], "properties": {}}, {"name": "F", "species": [{"element": "F", "occu": 1}], "xyz": [2.299474, -1.102676, 2.1977], "properties": {}}, {"name": "F", "species": [{"element": "F", "occu": 1}], "xyz": [2.02486, 0.030273, -2.725382], "properties": {}}, {"name": "F", "species": [{"element": "F", "occu": 1}], "xyz": [1.086, 1.771853, -1.799919], "properties": {}}, {"name": "F", "species": [{"element": "F", "occu": 1}], "xyz": [5.083733, 1.474374, 2.839392], "properties": {}}, {"name": "O", "species": [{"element": "O", "occu": 1}], "xyz": [2.830055, 0.799606, -0.746608], "properties": {}}, {"name": "O", "species": [{"element": "O", "occu": 1}], "xyz": [4.185915, -0.116522, 1.466643], "properties": {}}, {"name": "C", "species": [{"element": "C", "occu": 1}], "xyz": [2.326024, -0.246307, -0.016722], "properties": {}}, {"name": "C", "species": [{"element": "C", "occu": 1}], "xyz": [2.825627, -0.086277, 1.449159], "properties": {}}, {"name": "C", "species": [{"element": "C", "occu": 1}], "xyz": [2.288733, 1.152366, -1.99141], "properties": {}}, {"name": "C", "species": [{"element": "C", "occu": 1}], "xyz": [3.254729, 2.061, -2.70476], "properties": {}}, {"name": "C", "species": [{"element": "C", "occu": 1}], "xyz": [4.818853, 0.126251, 2.705725], "properties": {}}, {"name": "H", "species": [{"element": "H", "occu": 1}], "xyz": [3.442884, 2.943752, -2.089643], "properties": {}}, {"name": "H", "species": [{"element": "H", "occu": 1}], "xyz": [4.191766, 1.528371, -2.880928], "properties": {}}, {"name": "H", "species": [{"element": "H", "occu": 1}], "xyz": [2.811932, 2.361221, -3.657159], "properties": {}}, {"name": "H", "species": [{"element": "H", "occu": 1}], "xyz": [4.190315, -0.184469, 3.543856], "properties": {}}, {"name": "H", "species": [{"element": "H", "occu": 1}], "xyz": [5.768728, -0.40724, 2.6679], "properties": {}}]}, "smiles": "FC(F)(OC(F)(F)C)C(F)(F)OCF", "inchi": "InChI=1S/C5H5F7O2/c1-3(7,8)14-5(11,12)4(9,10)13-2-6/h2H2,1H3", "formula_alphabetical": "C5 F7 H5 O2", "chemsys": "C-F-H-O", "energy": -1042.93740349, "esp": {"1": ["F", -0.128219], "2": ["F", -0.147976], "3": ["F", -0.130383], "4": ["F", -0.166024], "5": ["F", -0.216544], "6": ["F", -0.232161], "7": ["F", -0.224113], "8": ["O", -0.302826], "9": ["O", -0.270652], "10": ["C", 0.344889], "11": ["C", 0.35559], "12": ["C", 0.697683], "13": ["C", -0.554518], "14": ["C", 0.204558], "15": ["H", 0.184044], "16": ["H", 0.179427], "17": ["H", 0.178721], "18": ["H", 0.113711], "19": ["H", 0.114792]}, "dipole_moment": {"X": 2.7525, "Y": 0.3529, "Z": -0.1347, "Tot": 2.7783}, "functional": "B3LYP", "basis": "6-31+G*", "phase": "gas", "tag": "lis", "state": "successful", "wall_time (s)": 11.846381683950312, "version": "0.0.1", "gauss_version": "ES64L-G16RevC.01", "last_updated": "2021-09-14 21:24:32.069000", "polarizability": 73.92, "fluorinated-solvent": "58602209", "run_ids": ["6141123e4c54fb100e3a6160", "614112b88db4ca5d59cd5a24"]}