{"_id": "614117e312c03bcff509447b", "molecule": {"@module": "pymatgen.core.structure", "@class": "Molecule", "charge": 0, "spin_multiplicity": 1, "sites": [{"name": "F", "species": [{"element": "F", "occu": 1}], "xyz": [1.147854, 0.293135, -0.13029], "properties": {}}, {"name": "F", "species": [{"element": "F", "occu": 1}], "xyz": [2.623952, -1.191449, -0.755465], "properties": {}}, {"name": "F", "species": [{"element": "F", "occu": 1}], "xyz": [3.241195, 0.859736, -0.326006], "properties": {}}, {"name": "F", "species": [{"element": "F", "occu": 1}], "xyz": [0.590301, -1.648521, 1.884071], "properties": {}}, {"name": "O", "species": [{"element": "O", "occu": 1}], "xyz": [2.378033, 0.57986, 2.323902], "properties": {}}, {"name": "C", "species": [{"element": "C", "occu": 1}], "xyz": [2.695957, -0.529514, 1.521252], "properties": {}}, {"name": "C", "species": [{"element": "C", "occu": 1}], "xyz": [2.40462, -0.129895, 0.068877], "properties": {}}, {"name": "C", "species": [{"element": "C", "occu": 1}], "xyz": [1.973476, -1.805354, 1.951918], "properties": {}}, {"name": "C", "species": [{"element": "C", "occu": 1}], "xyz": [3.22275, 0.765188, 3.464531], "properties": {}}, {"name": "C", "species": [{"element": "C", "occu": 1}], "xyz": [2.726982, 1.989323, 4.213046], "properties": {}}, {"name": "H", "species": [{"element": "H", "occu": 1}], "xyz": [3.777031, -0.747355, 1.543321], "properties": {}}, {"name": "H", "species": [{"element": "H", "occu": 1}], "xyz": [2.253379, -2.646271, 1.308993], "properties": {}}, {"name": "H", "species": [{"element": "H", "occu": 1}], "xyz": [2.232061, -2.032676, 2.991692], "properties": {}}, {"name": "H", "species": [{"element": "H", "occu": 1}], "xyz": [3.187437, -0.125358, 4.111418], "properties": {}}, {"name": "H", "species": [{"element": "H", "occu": 1}], "xyz": [4.263138, 0.900797, 3.12804], "properties": {}}, {"name": "H", "species": [{"element": "H", "occu": 1}], "xyz": [1.693076, 1.843242, 4.542251], "properties": {}}, {"name": "H", "species": [{"element": "H", "occu": 1}], "xyz": [3.353898, 2.172482, 5.093345], "properties": {}}, {"name": "H", "species": [{"element": "H", "occu": 1}], "xyz": [2.762941, 2.87189, 3.566154], "properties": {}}]}, "smiles": "FC(F)(F)[C@@H](OCC)CF", "inchi": "InChI=1S/C5H8F4O/c1-2-10-4(3-6)5(7,8)9/h4H,2-3H2,1H3/t4-/m0/s1", "formula_alphabetical": "C5 F4 H8 O1", "chemsys": "C-F-H-O", "energy": -669.962715631, "esp": {"1": ["F", -0.191708], "2": ["F", -0.228599], "3": ["F", -0.218947], "4": ["F", -0.223074], "5": ["O", -0.43212], "6": ["C", 0.117935], "7": ["C", 0.625038], "8": ["C", 0.027391], "9": ["C", 0.414892], "10": ["C", -0.353851], "11": ["H", 0.030111], "12": ["H", 0.080575], "13": ["H", 0.107655], "14": ["H", -0.03381], "15": ["H", -0.018792], "16": ["H", 0.115017], "17": ["H", 0.07729], "18": ["H", 0.104998]}, "dipole_moment": {"X": 3.1012, "Y": -1.0283, "Z": 3.0107, "Tot": 4.4429}, "functional": "B3LYP", "basis": "6-31+G*", "phase": "gas", "tag": "lis", "state": "successful", "wall_time (s)": 8.768419026979245, "version": "0.0.1", "gauss_version": "ES64L-G16RevC.01", "last_updated": "2021-09-14 21:45:07.018000", "polarizability": 67.54, "fluorinated-solvent": "57043984", "run_ids": ["614117c78b25fcc4081d7b75", "614117db72a79596840ad3e5"]}