{"_id": "613a51603692622618b65747", "molecule": {"@module": "pymatgen.core.structure", "@class": "Molecule", "charge": 0, "spin_multiplicity": 1, "sites": [{"name": "F", "species": [{"element": "F", "occu": 1}], "xyz": [4.224276, 1.355385, 0.123506], "properties": {}}, {"name": "F", "species": [{"element": "F", "occu": 1}], "xyz": [4.979462, -0.603387, -0.582885], "properties": {}}, {"name": "F", "species": [{"element": "F", "occu": 1}], "xyz": [1.729461, -1.179401, -2.989794], "properties": {}}, {"name": "F", "species": [{"element": "F", "occu": 1}], "xyz": [3.748641, -0.511488, -3.611684], "properties": {}}, {"name": "O", "species": [{"element": "O", "occu": 1}], "xyz": [2.392444, 1.375306, -2.026841], "properties": {}}, {"name": "C", "species": [{"element": "C", "occu": 1}], "xyz": [2.93741, 0.200864, -1.488006], "properties": {}}, {"name": "C", "species": [{"element": "C", "occu": 1}], "xyz": [1.006543, 1.618118, -1.725977], "properties": {}}, {"name": "C", "species": [{"element": "C", "occu": 1}], "xyz": [0.57919, 2.873485, -2.471822], "properties": {}}, {"name": "C", "species": [{"element": "C", "occu": 1}], "xyz": [4.334805, 0.551081, -0.979068], "properties": {}}, {"name": "C", "species": [{"element": "C", "occu": 1}], "xyz": [3.000274, -0.917241, -2.534342], "properties": {}}, {"name": "C", "species": [{"element": "C", "occu": 1}], "xyz": [0.639645, 2.715642, -3.995558], "properties": {}}, {"name": "H", "species": [{"element": "H", "occu": 1}], "xyz": [2.359422, -0.174763, -0.630235], "properties": {}}, {"name": "H", "species": [{"element": "H", "occu": 1}], "xyz": [0.405138, 0.755237, -2.042421], "properties": {}}, {"name": "H", "species": [{"element": "H", "occu": 1}], "xyz": [0.896594, 1.748, -0.638541], "properties": {}}, {"name": "H", "species": [{"element": "H", "occu": 1}], "xyz": [-0.444453, 3.115801, -2.15433], "properties": {}}, {"name": "H", "species": [{"element": "H", "occu": 1}], "xyz": [1.218425, 3.705679, -2.149219], "properties": {}}, {"name": "H", "species": [{"element": "H", "occu": 1}], "xyz": [4.952695, 1.060073, -1.72221], "properties": {}}, {"name": "H", "species": [{"element": "H", "occu": 1}], "xyz": [3.427208, -1.84946, -2.154904], "properties": {}}, {"name": "H", "species": [{"element": "H", "occu": 1}], "xyz": [-0.014491, 1.901178, -4.332209], "properties": {}}, {"name": "H", "species": [{"element": "H", "occu": 1}], "xyz": [0.319151, 3.635643, -4.497909], "properties": {}}, {"name": "H", "species": [{"element": "H", "occu": 1}], "xyz": [1.658141, 2.482858, -4.322072], "properties": {}}]}, "smiles": "FC(F)C(OCCC)C(F)F", "inchi": "InChI=1S/C6H10F4O/c1-2-3-11-4(5(7)8)6(9)10/h4-6H,2-3H2,1H3", "formula_alphabetical": "C6 F4 H10 O1", "chemsys": "C-F-H-O", "energy": -709.275375934, "esp": {"1": ["F", -0.209386], "2": ["F", -0.241524], "3": ["F", -0.212136], "4": ["F", -0.212111], "5": ["O", -0.315125], "6": ["C", -0.073952], "7": ["C", 0.030271], "8": ["C", 0.132808], "9": ["C", 0.350678], "10": ["C", 0.342771], "11": ["C", -0.176527], "12": ["H", 0.140033], "13": ["H", 0.06212], "14": ["H", 0.047268], "15": ["H", -0.01565], "16": ["H", 0.002904], "17": ["H", 0.11157], "18": ["H", 0.086824], "19": ["H", 0.055249], "20": ["H", 0.034827], "21": ["H", 0.059087]}, "dipole_moment": {"X": -1.4597, "Y": 0.0694, "Z": 0.6281, "Tot": 1.5906}, "functional": "B3LYP", "basis": "6-31+G*", "phase": "gas", "tag": "lis", "state": "successful", "wall_time (s)": 25.077915625995956, "version": "0.0.1", "gauss_version": "ES64L-G16RevC.01", "last_updated": "2021-09-09 18:24:32.059000", "polarizability": 78.69, "fluorinated-solvent": "53646389", "run_ids": ["613a4aa2b9b45f45e59782a1", "613a515918d2445903f982d7"]}