{"_id": "613a52bf92fbdd8653511054", "molecule": {"@module": "pymatgen.core.structure", "@class": "Molecule", "charge": 0, "spin_multiplicity": 1, "sites": [{"name": "F", "species": [{"element": "F", "occu": 1}], "xyz": [3.219993, 1.245415, 0.328897], "properties": {}}, {"name": "F", "species": [{"element": "F", "occu": 1}], "xyz": [1.481214, 0.084144, -0.294304], "properties": {}}, {"name": "F", "species": [{"element": "F", "occu": 1}], "xyz": [3.464899, -0.451565, -1.024296], "properties": {}}, {"name": "O", "species": [{"element": "O", "occu": 1}], "xyz": [0.454139, -1.826027, 2.39627], "properties": {}}, {"name": "C", "species": [{"element": "C", "occu": 1}], "xyz": [2.400407, -0.458286, 2.575438], "properties": {}}, {"name": "C", "species": [{"element": "C", "occu": 1}], "xyz": [3.001018, -0.947419, 1.247529], "properties": {}}, {"name": "C", "species": [{"element": "C", "occu": 1}], "xyz": [0.8754, -0.488966, 2.631753], "properties": {}}, {"name": "C", "species": [{"element": "C", "occu": 1}], "xyz": [2.787557, -0.020015, 0.07242], "properties": {}}, {"name": "C", "species": [{"element": "C", "occu": 1}], "xyz": [-0.95977, -2.001602, 2.312016], "properties": {}}, {"name": "C", "species": [{"element": "C", "occu": 1}], "xyz": [-1.537372, -1.582103, 0.960626], "properties": {}}, {"name": "H", "species": [{"element": "H", "occu": 1}], "xyz": [2.786307, -1.108967, 3.368994], "properties": {}}, {"name": "H", "species": [{"element": "H", "occu": 1}], "xyz": [2.746395, 0.55913, 2.794], "properties": {}}, {"name": "H", "species": [{"element": "H", "occu": 1}], "xyz": [2.580328, -1.919528, 0.975208], "properties": {}}, {"name": "H", "species": [{"element": "H", "occu": 1}], "xyz": [4.085464, -1.063041, 1.3464], "properties": {}}, {"name": "H", "species": [{"element": "H", "occu": 1}], "xyz": [0.536537, -0.158675, 3.628207], "properties": {}}, {"name": "H", "species": [{"element": "H", "occu": 1}], "xyz": [0.447086, 0.195883, 1.888229], "properties": {}}, {"name": "H", "species": [{"element": "H", "occu": 1}], "xyz": [-1.124934, -3.07158, 2.477676], "properties": {}}, {"name": "H", "species": [{"element": "H", "occu": 1}], "xyz": [-1.452413, -1.456583, 3.134559], "properties": {}}, {"name": "H", "species": [{"element": "H", "occu": 1}], "xyz": [-1.041318, -2.127572, 0.150533], "properties": {}}, {"name": "H", "species": [{"element": "H", "occu": 1}], "xyz": [-2.610925, -1.806145, 0.925733], "properties": {}}, {"name": "H", "species": [{"element": "H", "occu": 1}], "xyz": [-1.412141, -0.510081, 0.774828], "properties": {}}]}, "smiles": "FC(F)(F)CCCOCC", "inchi": "InChI=1S/C6H11F3O/c1-2-10-5-3-4-6(7,8)9/h2-5H2,1H3", "formula_alphabetical": "C6 F3 H11 O1", "chemsys": "C-F-H-O", "energy": -610.048461563, "esp": {"1": ["F", -0.217386], "2": ["F", -0.209243], "3": ["F", -0.23942], "4": ["O", -0.460666], "5": ["C", -0.077738], "6": ["C", -0.156893], "7": ["C", 0.097757], "8": ["C", 0.602467], "9": ["C", 0.352853], "10": ["C", -0.282047], "11": ["H", 0.075036], "12": ["H", 0.042555], "13": ["H", 0.099246], "14": ["H", 0.084393], "15": ["H", 0.045066], "16": ["H", 0.042067], "17": ["H", 0.002317], "18": ["H", -0.028697], "19": ["H", 0.091284], "20": ["H", 0.052635], "21": ["H", 0.084414]}, "dipole_moment": {"X": -0.8792, "Y": -0.5427, "Z": 2.1268, "Tot": 2.3645}, "functional": "B3LYP", "basis": "6-31+G*", "phase": "gas", "tag": "lis", "state": "successful", "wall_time (s)": 9.062925681937486, "version": "0.0.1", "gauss_version": "ES64L-G16RevC.01", "last_updated": "2021-09-09 18:30:23.063000", "polarizability": 77.81, "fluorinated-solvent": "53701783", "run_ids": ["613a4ab68d743d12787efada", "613a52b9bc308b7c80e2e0f4"]}