{"_id": "61410e20caec3916d1328c83", "molecule": {"@module": "pymatgen.core.structure", "@class": "Molecule", "charge": 0, "spin_multiplicity": 1, "sites": [{"name": "F", "species": [{"element": "F", "occu": 1}], "xyz": [3.309381, 3.381043, 1.250604], "properties": {}}, {"name": "F", "species": [{"element": "F", "occu": 1}], "xyz": [1.506144, 2.172612, 1.547247], "properties": {}}, {"name": "O", "species": [{"element": "O", "occu": 1}], "xyz": [3.080015, 1.452553, 0.097178], "properties": {}}, {"name": "O", "species": [{"element": "O", "occu": 1}], "xyz": [2.782332, 3.031384, -3.815897], "properties": {}}, {"name": "C", "species": [{"element": "C", "occu": 1}], "xyz": [2.872123, 1.210138, -2.266087], "properties": {}}, {"name": "C", "species": [{"element": "C", "occu": 1}], "xyz": [2.5039, 2.081881, -1.075177], "properties": {}}, {"name": "C", "species": [{"element": "C", "occu": 1}], "xyz": [2.870293, 2.061208, 1.289006], "properties": {}}, {"name": "C", "species": [{"element": "C", "occu": 1}], "xyz": [3.542817, 1.317156, 2.424594], "properties": {}}, {"name": "C", "species": [{"element": "C", "occu": 1}], "xyz": [2.268808, 1.731361, -3.564107], "properties": {}}, {"name": "C", "species": [{"element": "C", "occu": 1}], "xyz": [5.0616, 1.214952, 2.256932], "properties": {}}, {"name": "C", "species": [{"element": "C", "occu": 1}], "xyz": [2.281661, 3.608598, -5.008104], "properties": {}}, {"name": "H", "species": [{"element": "H", "occu": 1}], "xyz": [3.963372, 1.166368, -2.36233], "properties": {}}, {"name": "H", "species": [{"element": "H", "occu": 1}], "xyz": [2.51313, 0.187753, -2.092109], "properties": {}}, {"name": "H", "species": [{"element": "H", "occu": 1}], "xyz": [1.416662, 2.143324, -0.948847], "properties": {}}, {"name": "H", "species": [{"element": "H", "occu": 1}], "xyz": [2.909522, 3.090539, -1.182423], "properties": {}}, {"name": "H", "species": [{"element": "H", "occu": 1}], "xyz": [3.281452, 1.84831, 3.345739], "properties": {}}, {"name": "H", "species": [{"element": "H", "occu": 1}], "xyz": [3.083451, 0.323997, 2.470572], "properties": {}}, {"name": "H", "species": [{"element": "H", "occu": 1}], "xyz": [2.522526, 1.054293, -4.39729], "properties": {}}, {"name": "H", "species": [{"element": "H", "occu": 1}], "xyz": [1.166804, 1.770137, -3.492146], "properties": {}}, {"name": "H", "species": [{"element": "H", "occu": 1}], "xyz": [5.517886, 2.209096, 2.206613], "properties": {}}, {"name": "H", "species": [{"element": "H", "occu": 1}], "xyz": [5.498845, 0.681033, 3.107644], "properties": {}}, {"name": "H", "species": [{"element": "H", "occu": 1}], "xyz": [5.317927, 0.673139, 1.34124], "properties": {}}, {"name": "H", "species": [{"element": "H", "occu": 1}], "xyz": [2.545432, 3.001853, -5.889791], "properties": {}}, {"name": "H", "species": [{"element": "H", "occu": 1}], "xyz": [1.185776, 3.720492, -4.971339], "properties": {}}, {"name": "H", "species": [{"element": "H", "occu": 1}], "xyz": [2.739701, 4.596449, -5.102793], "properties": {}}]}, "smiles": "FC(F)(OCCCOC)CC", "inchi": "InChI=1S/C7H14F2O2/c1-3-7(8,9)11-6-4-5-10-2/h3-6H2,1-2H3", "formula_alphabetical": "C7 F2 H14 O2", "chemsys": "C-F-H-O", "energy": -625.336333307, "esp": {"1": ["F", -0.232811], "2": ["F", -0.280245], "3": ["O", -0.38468], "4": ["O", -0.338707], "5": ["C", -0.287687], "6": ["C", 0.317624], "7": ["C", 0.495724], "8": ["C", -0.018734], "9": ["C", 0.193785], "10": ["C", -0.174153], "11": ["C", -0.140993], "12": ["H", 0.112681], "13": ["H", 0.078212], "14": ["H", 0.04322], "15": ["H", 0.0109], "16": ["H", 0.057612], "17": ["H", 0.052956], "18": ["H", 0.038652], "19": ["H", 0.01154], "20": ["H", 0.06166], "21": ["H", 0.055046], "22": ["H", 0.051165], "23": ["H", 0.080111], "24": ["H", 0.077376], "25": ["H", 0.119747]}, "dipole_moment": {"X": -0.1033, "Y": -1.4942, "Z": -1.8814, "Tot": 2.4048}, "functional": "B3LYP", "basis": "6-31+G*", "phase": "gas", "tag": "lis", "state": "successful", "wall_time (s)": 11.559892245917581, "version": "0.0.1", "gauss_version": "ES64L-G16RevC.01", "last_updated": "2021-09-14 21:03:28.301000", "polarizability": 94.13, "fluorinated-solvent": "88900270", "run_ids": ["61410dbdb62d1edcc88c6f04", "61410dea63c76c3ebcc87b63"]}