{"_id": "61411da3283e5c586c9bd717", "molecule": {"@module": "pymatgen.core.structure", "@class": "Molecule", "charge": 0, "spin_multiplicity": 1, "sites": [{"name": "F", "species": [{"element": "F", "occu": 1}], "xyz": [2.497172, -3.441938, 0.861595], "properties": {}}, {"name": "F", "species": [{"element": "F", "occu": 1}], "xyz": [2.806132, -2.482064, -1.078024], "properties": {}}, {"name": "F", "species": [{"element": "F", "occu": 1}], "xyz": [0.974126, -2.1067, 0.054133], "properties": {}}, {"name": "F", "species": [{"element": "F", "occu": 1}], "xyz": [2.931913, 1.271812, 4.893695], "properties": {}}, {"name": "O", "species": [{"element": "O", "occu": 1}], "xyz": [2.475877, -0.933559, 2.106642], "properties": {}}, {"name": "C", "species": [{"element": "C", "occu": 1}], "xyz": [3.003164, -1.111328, 0.817017], "properties": {}}, {"name": "C", "species": [{"element": "C", "occu": 1}], "xyz": [3.058018, 0.156097, 2.809811], "properties": {}}, {"name": "C", "species": [{"element": "C", "occu": 1}], "xyz": [2.305127, -2.29789, 0.171557], "properties": {}}, {"name": "C", "species": [{"element": "C", "occu": 1}], "xyz": [2.379844, 0.204015, 4.170415], "properties": {}}, {"name": "H", "species": [{"element": "H", "occu": 1}], "xyz": [4.081129, -1.330618, 0.838385], "properties": {}}, {"name": "H", "species": [{"element": "H", "occu": 1}], "xyz": [2.830073, -0.234205, 0.175728], "properties": {}}, {"name": "H", "species": [{"element": "H", "occu": 1}], "xyz": [4.142097, 0.009701, 2.934098], "properties": {}}, {"name": "H", "species": [{"element": "H", "occu": 1}], "xyz": [2.893455, 1.10325, 2.273228], "properties": {}}, {"name": "H", "species": [{"element": "H", "occu": 1}], "xyz": [1.30411, 0.378466, 4.070569], "properties": {}}, {"name": "H", "species": [{"element": "H", "occu": 1}], "xyz": [2.556202, -0.717768, 4.733279], "properties": {}}]}, "smiles": "FC(F)(F)COCCF", "inchi": "InChI=1S/C4H6F4O/c5-1-2-9-3-4(6,7)8/h1-3H2", "formula_alphabetical": "C4 F4 H6 O1", "chemsys": "C-F-H-O", "energy": -630.649231242, "esp": {"1": ["F", -0.196889], "2": ["F", -0.237753], "3": ["F", -0.196545], "4": ["F", -0.307328], "5": ["O", -0.438807], "6": ["C", -0.043746], "7": ["C", 0.229661], "8": ["C", 0.623038], "9": ["C", 0.179899], "10": ["H", 0.103359], "11": ["H", 0.101079], "12": ["H", 0.028438], "13": ["H", 0.031193], "14": ["H", 0.061175], "15": ["H", 0.063227]}, "dipole_moment": {"X": 1.18, "Y": 1.1279, "Z": -0.3604, "Tot": 1.6717}, "functional": "B3LYP", "basis": "6-31+G*", "phase": "gas", "tag": "lis", "state": "successful", "wall_time (s)": 6.458867031033151, "version": "0.0.1", "gauss_version": "ES64L-G16RevC.01", "last_updated": "2021-09-14 22:09:39.128000", "polarizability": 55.85, "fluorinated-solvent": "88850859", "run_ids": ["61411d8e7fba696d491a70a5", "61411d9ba37c4f90fe5df5d4"]}