{"_id": "613a4dc87f2d6dafa6ece8a3", "molecule": {"@module": "pymatgen.core.structure", "@class": "Molecule", "charge": 0, "spin_multiplicity": 1, "sites": [{"name": "F", "species": [{"element": "F", "occu": 1}], "xyz": [2.875742, 0.79349, 1.032747], "properties": {}}, {"name": "F", "species": [{"element": "F", "occu": 1}], "xyz": [1.045484, 0.164419, 0.025846], "properties": {}}, {"name": "F", "species": [{"element": "F", "occu": 1}], "xyz": [2.878505, 0.461737, -1.124761], "properties": {}}, {"name": "O", "species": [{"element": "O", "occu": 1}], "xyz": [2.269062, -1.855072, 1.51409], "properties": {}}, {"name": "C", "species": [{"element": "C", "occu": 1}], "xyz": [2.792487, -1.464189, 0.259587], "properties": {}}, {"name": "C", "species": [{"element": "C", "occu": 1}], "xyz": [2.385634, -0.002672, 0.056394], "properties": {}}, {"name": "C", "species": [{"element": "C", "occu": 1}], "xyz": [2.286863, -2.356676, -0.873858], "properties": {}}, {"name": "C", "species": [{"element": "C", "occu": 1}], "xyz": [3.085274, -2.773853, 2.242936], "properties": {}}, {"name": "C", "species": [{"element": "C", "occu": 1}], "xyz": [2.362333, -3.117594, 3.533518], "properties": {}}, {"name": "H", "species": [{"element": "H", "occu": 1}], "xyz": [3.892939, -1.455068, 0.283533], "properties": {}}, {"name": "H", "species": [{"element": "H", "occu": 1}], "xyz": [2.691435, -2.039747, -1.840193], "properties": {}}, {"name": "H", "species": [{"element": "H", "occu": 1}], "xyz": [2.59922, -3.389192, -0.689352], "properties": {}}, {"name": "H", "species": [{"element": "H", "occu": 1}], "xyz": [1.194078, -2.326231, -0.91347], "properties": {}}, {"name": "H", "species": [{"element": "H", "occu": 1}], "xyz": [3.262509, -3.680966, 1.643673], "properties": {}}, {"name": "H", "species": [{"element": "H", "occu": 1}], "xyz": [4.062403, -2.309421, 2.452032], "properties": {}}, {"name": "H", "species": [{"element": "H", "occu": 1}], "xyz": [1.395194, -3.584344, 3.318859], "properties": {}}, {"name": "H", "species": [{"element": "H", "occu": 1}], "xyz": [2.963306, -3.814206, 4.129624], "properties": {}}, {"name": "H", "species": [{"element": "H", "occu": 1}], "xyz": [2.185533, -2.212506, 4.123935], "properties": {}}]}, "smiles": "FC(F)(F)[C@@H](OCC)C", "inchi": "InChI=1S/C5H9F3O/c1-3-9-4(2)5(6,7)8/h4H,3H2,1-2H3/t4-/m0/s1", "formula_alphabetical": "C5 F3 H9 O1", "chemsys": "C-F-H-O", "energy": -570.73256962, "esp": {"1": ["F", -0.223643], "2": ["F", -0.203533], "3": ["F", -0.235888], "4": ["O", -0.506703], "5": ["C", 0.299213], "6": ["C", 0.602063], "7": ["C", -0.490746], "8": ["C", 0.446881], "9": ["C", -0.350222], "10": ["H", 0.016796], "11": ["H", 0.125478], "12": ["H", 0.154769], "13": ["H", 0.15351], "14": ["H", -0.039098], "15": ["H", -0.035533], "16": ["H", 0.107693], "17": ["H", 0.072717], "18": ["H", 0.106244]}, "dipole_moment": {"X": 1.5927, "Y": -3.051, "Z": 0.2001, "Tot": 3.4475}, "functional": "B3LYP", "basis": "6-31+G*", "phase": "gas", "tag": "lis", "state": "successful", "wall_time (s)": 7.699038775986992, "version": "0.0.1", "gauss_version": "ES64L-G16RevC.01", "last_updated": "2021-09-09 18:09:12.639000", "polarizability": 66.91, "fluorinated-solvent": "53966619", "run_ids": ["613a4a0b31446375cbbbdee8", "613a4dc19526efd2a006e803"]}