{"_id": "6141140c0d7419c632ceca80", "molecule": {"@module": "pymatgen.core.structure", "@class": "Molecule", "charge": 0, "spin_multiplicity": 1, "sites": [{"name": "F", "species": [{"element": "F", "occu": 1}], "xyz": [1.038107, 0.136283, 0.171084], "properties": {}}, {"name": "F", "species": [{"element": "F", "occu": 1}], "xyz": [2.905358, 0.232467, 1.352292], "properties": {}}, {"name": "F", "species": [{"element": "F", "occu": 1}], "xyz": [3.931453, -3.018408, -2.27861], "properties": {}}, {"name": "F", "species": [{"element": "F", "occu": 1}], "xyz": [2.075848, -3.853215, -1.485142], "properties": {}}, {"name": "F", "species": [{"element": "F", "occu": 1}], "xyz": [2.676648, 2.31524, -0.345816], "properties": {}}, {"name": "F", "species": [{"element": "F", "occu": 1}], "xyz": [4.266763, 0.925148, -1.013618], "properties": {}}, {"name": "F", "species": [{"element": "F", "occu": 1}], "xyz": [2.27926, -3.996478, -4.223312], "properties": {}}, {"name": "F", "species": [{"element": "F", "occu": 1}], "xyz": [0.652207, -2.692648, -3.578313], "properties": {}}, {"name": "F", "species": [{"element": "F", "occu": 1}], "xyz": [2.498479, -1.828656, -4.362512], "properties": {}}, {"name": "O", "species": [{"element": "O", "occu": 1}], "xyz": [2.293889, -1.615806, -1.623824], "properties": {}}, {"name": "C", "species": [{"element": "C", "occu": 1}], "xyz": [2.769458, -1.418664, -0.278571], "properties": {}}, {"name": "C", "species": [{"element": "C", "occu": 1}], "xyz": [2.398918, 0.005846, 0.104454], "properties": {}}, {"name": "C", "species": [{"element": "C", "occu": 1}], "xyz": [2.585013, -2.803386, -2.194524], "properties": {}}, {"name": "C", "species": [{"element": "C", "occu": 1}], "xyz": [2.914112, 1.083682, -0.868668], "properties": {}}, {"name": "C", "species": [{"element": "C", "occu": 1}], "xyz": [1.985599, -2.830897, -3.629489], "properties": {}}, {"name": "H", "species": [{"element": "H", "occu": 1}], "xyz": [3.854526, -1.536953, -0.233817], "properties": {}}, {"name": "H", "species": [{"element": "H", "occu": 1}], "xyz": [2.273506, -2.107264, 0.410618], "properties": {}}, {"name": "H", "species": [{"element": "H", "occu": 1}], "xyz": [2.437606, 1.005968, -1.848612], "properties": {}}]}, "smiles": "FC(F)(COC(F)(F)C(F)(F)F)C(F)F", "inchi": "InChI=1S/C5H3F9O/c6-2(7)3(8,9)1-15-5(13,14)4(10,11)12/h2H,1H2", "formula_alphabetical": "C5 F9 H3 O1", "chemsys": "C-F-H-O", "energy": -1166.19108641, "esp": {"1": ["F", -0.177569], "2": ["F", -0.174915], "3": ["F", -0.139234], "4": ["F", -0.138328], "5": ["F", -0.186657], "6": ["F", -0.199228], "7": ["F", -0.163033], "8": ["F", -0.164905], "9": ["F", -0.166949], "10": ["O", -0.280395], "11": ["C", -0.009894], "12": ["C", 0.271278], "13": ["C", 0.2453], "14": ["C", 0.332051], "15": ["C", 0.557756], "16": ["H", 0.127384], "17": ["H", 0.162785], "18": ["H", 0.104554]}, "dipole_moment": {"X": 0.1466, "Y": -0.9346, "Z": 0.0261, "Tot": 0.9464}, "functional": "B3LYP", "basis": "6-31+G*", "phase": "gas", "tag": "lis", "state": "successful", "wall_time (s)": 11.672005058964714, "version": "0.0.1", "gauss_version": "ES64L-G16RevC.01", "last_updated": "2021-09-14 21:28:44.168000", "polarizability": 70.93, "fluorinated-solvent": "88410581", "run_ids": ["614113648b75d2a1a8849f55", "614113bfe8f0e893f32d5ca4"]}