{"_id": "61411180693f1afa3ccf7d15", "molecule": {"@module": "pymatgen.core.structure", "@class": "Molecule", "charge": 0, "spin_multiplicity": 1, "sites": [{"name": "F", "species": [{"element": "F", "occu": 1}], "xyz": [1.467296, 4.667554, 0.30502], "properties": {}}, {"name": "F", "species": [{"element": "F", "occu": 1}], "xyz": [3.481686, 4.559114, 1.226863], "properties": {}}, {"name": "O", "species": [{"element": "O", "occu": 1}], "xyz": [2.169773, 2.187141, -1.154473], "properties": {}}, {"name": "C", "species": [{"element": "C", "occu": 1}], "xyz": [0.324998, 1.405891, -2.495432], "properties": {}}, {"name": "C", "species": [{"element": "C", "occu": 1}], "xyz": [0.742613, 2.037997, -1.166871], "properties": {}}, {"name": "C", "species": [{"element": "C", "occu": 1}], "xyz": [0.675738, 2.31564, -3.682936], "properties": {}}, {"name": "C", "species": [{"element": "C", "occu": 1}], "xyz": [0.922212, 0.00118, -2.666578], "properties": {}}, {"name": "C", "species": [{"element": "C", "occu": 1}], "xyz": [2.727701, 2.652655, 0.052529], "properties": {}}, {"name": "C", "species": [{"element": "C", "occu": 1}], "xyz": [2.743235, 4.172685, 0.129156], "properties": {}}, {"name": "H", "species": [{"element": "H", "occu": 1}], "xyz": [-0.770984, 1.313277, -2.443381], "properties": {}}, {"name": "H", "species": [{"element": "H", "occu": 1}], "xyz": [0.442519, 1.393211, -0.324389], "properties": {}}, {"name": "H", "species": [{"element": "H", "occu": 1}], "xyz": [0.258615, 3.015258, -1.038259], "properties": {}}, {"name": "H", "species": [{"element": "H", "occu": 1}], "xyz": [1.761221, 2.439318, -3.76528], "properties": {}}, {"name": "H", "species": [{"element": "H", "occu": 1}], "xyz": [0.308956, 1.886836, -4.623209], "properties": {}}, {"name": "H", "species": [{"element": "H", "occu": 1}], "xyz": [0.229007, 3.311436, -3.568233], "properties": {}}, {"name": "H", "species": [{"element": "H", "occu": 1}], "xyz": [0.645352, -0.654694, -1.831204], "properties": {}}, {"name": "H", "species": [{"element": "H", "occu": 1}], "xyz": [0.564573, -0.463415, -3.593283], "properties": {}}, {"name": "H", "species": [{"element": "H", "occu": 1}], "xyz": [2.015762, 0.050221, -2.709081], "properties": {}}, {"name": "H", "species": [{"element": "H", "occu": 1}], "xyz": [3.767353, 2.30908, 0.083473], "properties": {}}, {"name": "H", "species": [{"element": "H", "occu": 1}], "xyz": [2.200679, 2.261952, 0.936492], "properties": {}}, {"name": "H", "species": [{"element": "H", "occu": 1}], "xyz": [3.163341, 4.652383, -0.759797], "properties": {}}]}, "smiles": "FC(F)COCC(C)C", "inchi": "InChI=1S/C6H12F2O/c1-5(2)3-9-4-6(7)8/h5-6H,3-4H2,1-2H3", "formula_alphabetical": "C6 F2 H12 O1", "chemsys": "C-F-H-O", "energy": -510.788791395, "esp": {"1": ["F", -0.253601], "2": ["F", -0.282266], "3": ["O", -0.316781], "4": ["C", 0.369667], "5": ["C", 0.041007], "6": ["C", -0.267274], "7": ["C", -0.309801], "8": ["C", -0.15137], "9": ["C", 0.490416], "10": ["H", -0.068377], "11": ["H", 0.031035], "12": ["H", 0.036659], "13": ["H", 0.047952], "14": ["H", 0.064028], "15": ["H", 0.053024], "16": ["H", 0.063588], "17": ["H", 0.068184], "18": ["H", 0.070925], "19": ["H", 0.119123], "20": ["H", 0.132371], "21": ["H", 0.061491]}, "dipole_moment": {"X": -0.3274, "Y": -1.2591, "Z": -0.833, "Tot": 1.5447}, "functional": "B3LYP", "basis": "6-31+G*", "phase": "gas", "tag": "lis", "state": "successful", "wall_time (s)": 8.11455389810726, "version": "0.0.1", "gauss_version": "ES64L-G16RevC.01", "last_updated": "2021-09-14 21:17:51.727000", "polarizability": 77.86, "fluorinated-solvent": "87069201", "run_ids": ["61411100784f59ae2f32e1c0", "61411135519edc1a160f8acc"]}