{"_id": "61412de00aaf443b30bd74ae", "molecule": {"@module": "pymatgen.core.structure", "@class": "Molecule", "charge": 0, "spin_multiplicity": 1, "sites": [{"name": "F", "species": [{"element": "F", "occu": 1}], "xyz": [4.984414, 1.461463, -0.169746], "properties": {}}, {"name": "F", "species": [{"element": "F", "occu": 1}], "xyz": [4.660974, 1.922492, 1.935316], "properties": {}}, {"name": "F", "species": [{"element": "F", "occu": 1}], "xyz": [4.071307, -0.756145, 2.43943], "properties": {}}, {"name": "F", "species": [{"element": "F", "occu": 1}], "xyz": [4.421055, -1.217743, 0.30994], "properties": {}}, {"name": "F", "species": [{"element": "F", "occu": 1}], "xyz": [2.20498, 2.182407, -1.055366], "properties": {}}, {"name": "F", "species": [{"element": "F", "occu": 1}], "xyz": [0.237328, 1.231478, 0.701295], "properties": {}}, {"name": "F", "species": [{"element": "F", "occu": 1}], "xyz": [1.173403, 2.340155, 2.336353], "properties": {}}, {"name": "F", "species": [{"element": "F", "occu": 1}], "xyz": [6.496785, -1.863235, 1.924171], "properties": {}}, {"name": "F", "species": [{"element": "F", "occu": 1}], "xyz": [7.006429, -0.254007, 0.543192], "properties": {}}, {"name": "F", "species": [{"element": "F", "occu": 1}], "xyz": [6.657378, 0.185607, 2.653217], "properties": {}}, {"name": "F", "species": [{"element": "F", "occu": 1}], "xyz": [-0.44452, 5.994671, 1.411226], "properties": {}}, {"name": "F", "species": [{"element": "F", "occu": 1}], "xyz": [-1.204022, 5.451686, -0.559095], "properties": {}}, {"name": "F", "species": [{"element": "F", "occu": 1}], "xyz": [-2.535066, 5.396782, 1.174868], "properties": {}}, {"name": "O", "species": [{"element": "O", "occu": 1}], "xyz": [2.966652, 1.042235, 0.744991], "properties": {}}, {"name": "O", "species": [{"element": "O", "occu": 1}], "xyz": [0.393542, 3.473706, 0.552612], "properties": {}}, {"name": "C", "species": [{"element": "C", "occu": 1}], "xyz": [4.314979, 1.056185, 0.941265], "properties": {}}, {"name": "C", "species": [{"element": "C", "occu": 1}], "xyz": [4.750734, -0.389032, 1.327662], "properties": {}}, {"name": "C", "species": [{"element": "C", "occu": 1}], "xyz": [2.374282, 2.235619, 0.301231], "properties": {}}, {"name": "C", "species": [{"element": "C", "occu": 1}], "xyz": [0.992674, 2.335407, 0.975008], "properties": {}}, {"name": "C", "species": [{"element": "C", "occu": 1}], "xyz": [6.272197, -0.576322, 1.618504], "properties": {}}, {"name": "C", "species": [{"element": "C", "occu": 1}], "xyz": [-0.937717, 3.697716, 1.029473], "properties": {}}, {"name": "C", "species": [{"element": "C", "occu": 1}], "xyz": [-1.270172, 5.154906, 0.753623], "properties": {}}, {"name": "H", "species": [{"element": "H", "occu": 1}], "xyz": [2.974296, 3.114015, 0.551081], "properties": {}}, {"name": "H", "species": [{"element": "H", "occu": 1}], "xyz": [-1.649568, 3.064197, 0.494059], "properties": {}}, {"name": "H", "species": [{"element": "H", "occu": 1}], "xyz": [-1.007264, 3.525472, 2.10684], "properties": {}}]}, "smiles": "FC(F)(O[C@@H](F)C(F)(F)OCC(F)(F)F)C(F)(F)C(F)(F)F", "inchi": "InChI=1S/C7H3F13O2/c8-2(4(12,13)21-1-3(9,10)11)22-7(19,20)5(14,15)6(16,17)18/h2H,1H2/t2-/m1/s1", "formula_alphabetical": "C7 F13 H3 O2", "chemsys": "C-F-H-O", "energy": -1717.01892449, "esp": {"1": ["F", -0.154676], "2": ["F", -0.180254], "3": ["F", -0.12453], "4": ["F", -0.113484], "5": ["F", -0.165858], "6": ["F", -0.17267], "7": ["F", -0.205292], "8": ["F", -0.13443], "9": ["F", -0.150571], "10": ["F", -0.143701], "11": ["F", -0.191315], "12": ["F", -0.185675], "13": ["F", -0.221822], "14": ["O", -0.236605], "15": ["O", -0.318196], "16": ["C", 0.454106], "17": ["C", 0.155789], "18": ["C", 0.148219], "19": ["C", 0.51002], "20": ["C", 0.47053], "21": ["C", -0.121501], "22": ["C", 0.61677], "23": ["H", 0.158507], "24": ["H", 0.15556], "25": ["H", 0.151078]}, "dipole_moment": {"X": -0.9769, "Y": 0.3289, "Z": 0.8456, "Tot": 1.3332}, "functional": "B3LYP", "basis": "6-31+G*", "phase": "gas", "tag": "lis", "state": "successful", "wall_time (s)": 25.454830470029265, "version": "0.0.1", "gauss_version": "ES64L-G16RevC.01", "last_updated": "2021-09-14 23:18:56.076000", "polarizability": 102.55, "fluorinated-solvent": "101394073", "run_ids": ["61412dba1d9cd981a85c122d", "61412ddab817ed14172d4b00"]}