{"_id": "6141262cef1da78a95530599", "molecule": {"@module": "pymatgen.core.structure", "@class": "Molecule", "charge": 0, "spin_multiplicity": 1, "sites": [{"name": "F", "species": [{"element": "F", "occu": 1}], "xyz": [0.955012, 0.035264, 0.162267], "properties": {}}, {"name": "F", "species": [{"element": "F", "occu": 1}], "xyz": [2.602908, -1.014554, -0.819566], "properties": {}}, {"name": "F", "species": [{"element": "F", "occu": 1}], "xyz": [4.295089, -0.378329, 1.341082], "properties": {}}, {"name": "F", "species": [{"element": "F", "occu": 1}], "xyz": [2.647996, 0.671267, 2.322522], "properties": {}}, {"name": "O", "species": [{"element": "O", "occu": 1}], "xyz": [2.825821, 1.182262, -0.359256], "properties": {}}, {"name": "O", "species": [{"element": "O", "occu": 1}], "xyz": [2.424331, -1.524261, 1.861083], "properties": {}}, {"name": "C", "species": [{"element": "C", "occu": 1}], "xyz": [2.325593, 0.008965, 0.055671], "properties": {}}, {"name": "C", "species": [{"element": "C", "occu": 1}], "xyz": [2.925125, -0.349208, 1.44488], "properties": {}}, {"name": "C", "species": [{"element": "C", "occu": 1}], "xyz": [2.367041, 1.670804, -1.651719], "properties": {}}, {"name": "C", "species": [{"element": "C", "occu": 1}], "xyz": [3.064799, 2.995127, -1.892626], "properties": {}}, {"name": "C", "species": [{"element": "C", "occu": 1}], "xyz": [2.888327, -1.996905, 3.14447], "properties": {}}, {"name": "H", "species": [{"element": "H", "occu": 1}], "xyz": [2.624951, 0.929993, -2.415487], "properties": {}}, {"name": "H", "species": [{"element": "H", "occu": 1}], "xyz": [1.27882, 1.784978, -1.614505], "properties": {}}, {"name": "H", "species": [{"element": "H", "occu": 1}], "xyz": [4.151548, 2.86307, -1.905654], "properties": {}}, {"name": "H", "species": [{"element": "H", "occu": 1}], "xyz": [2.750777, 3.405949, -2.859013], "properties": {}}, {"name": "H", "species": [{"element": "H", "occu": 1}], "xyz": [2.810434, 3.714801, -1.107771], "properties": {}}, {"name": "H", "species": [{"element": "H", "occu": 1}], "xyz": [3.970805, -2.15153, 3.124168], "properties": {}}, {"name": "H", "species": [{"element": "H", "occu": 1}], "xyz": [2.616428, -1.288213, 3.931816], "properties": {}}, {"name": "H", "species": [{"element": "H", "occu": 1}], "xyz": [2.374842, -2.94585, 3.297747], "properties": {}}]}, "smiles": "FC(F)(OCC)C(F)(F)OC", "inchi": "InChI=1S/C5H8F4O2/c1-3-11-5(8,9)4(6,7)10-2/h3H2,1-2H3", "formula_alphabetical": "C5 F4 H8 O2", "chemsys": "C-F-H-O", "energy": -745.19805454, "esp": {"1": ["F", -0.183807], "2": ["F", -0.18119], "3": ["F", -0.201313], "4": ["F", -0.200391], "5": ["O", -0.342407], "6": ["O", -0.276001], "7": ["C", 0.298228], "8": ["C", 0.506673], "9": ["C", 0.396729], "10": ["C", -0.41335], "11": ["C", -0.100307], "12": ["H", 0.01253], "13": ["H", 0.014036], "14": ["H", 0.123702], "15": ["H", 0.096521], "16": ["H", 0.122979], "17": ["H", 0.105132], "18": ["H", 0.106215], "19": ["H", 0.116021]}, "dipole_moment": {"X": 0.1183, "Y": 0.2913, "Z": -0.1131, "Tot": 0.3341}, "functional": "B3LYP", "basis": "6-31+G*", "phase": "gas", "tag": "lis", "state": "successful", "wall_time (s)": 10.334098821971565, "version": "0.0.1", "gauss_version": "ES64L-G16RevC.01", "last_updated": "2021-09-14 22:46:04.600000", "polarizability": 72.06, "fluorinated-solvent": "89666704", "run_ids": ["6141260948f210b4319ff289", "614126258d3fea173a4b28d3"]}