{"_id": "6141236a02be1f518c00c1b2", "molecule": {"@module": "pymatgen.core.structure", "@class": "Molecule", "charge": 0, "spin_multiplicity": 1, "sites": [{"name": "F", "species": [{"element": "F", "occu": 1}], "xyz": [3.718719, 0.786728, 2.629042], "properties": {}}, {"name": "F", "species": [{"element": "F", "occu": 1}], "xyz": [1.622229, 0.387957, 3.100972], "properties": {}}, {"name": "F", "species": [{"element": "F", "occu": 1}], "xyz": [3.227329, -1.819769, 3.270634], "properties": {}}, {"name": "F", "species": [{"element": "F", "occu": 1}], "xyz": [1.759977, -2.008574, 1.66731], "properties": {}}, {"name": "F", "species": [{"element": "F", "occu": 1}], "xyz": [3.852737, -1.603732, 1.19125], "properties": {}}, {"name": "O", "species": [{"element": "O", "occu": 1}], "xyz": [2.232153, 0.623306, 0.937414], "properties": {}}, {"name": "C", "species": [{"element": "C", "occu": 1}], "xyz": [1.886399, 2.054587, 0.811614], "properties": {}}, {"name": "C", "species": [{"element": "C", "occu": 1}], "xyz": [2.641481, 2.577113, -0.406486], "properties": {}}, {"name": "C", "species": [{"element": "C", "occu": 1}], "xyz": [0.372567, 2.158972, 0.693371], "properties": {}}, {"name": "C", "species": [{"element": "C", "occu": 1}], "xyz": [2.586147, 0.175898, 2.141629], "properties": {}}, {"name": "C", "species": [{"element": "C", "occu": 1}], "xyz": [4.16506, 2.514578, -0.261162], "properties": {}}, {"name": "C", "species": [{"element": "C", "occu": 1}], "xyz": [2.8627, -1.351742, 2.065257], "properties": {}}, {"name": "H", "species": [{"element": "H", "occu": 1}], "xyz": [2.239816, 2.560846, 1.716514], "properties": {}}, {"name": "H", "species": [{"element": "H", "occu": 1}], "xyz": [2.317691, 2.001763, -1.284118], "properties": {}}, {"name": "H", "species": [{"element": "H", "occu": 1}], "xyz": [2.318812, 3.614143, -0.570725], "properties": {}}, {"name": "H", "species": [{"element": "H", "occu": 1}], "xyz": [-0.116499, 1.743069, 1.578715], "properties": {}}, {"name": "H", "species": [{"element": "H", "occu": 1}], "xyz": [0.078614, 3.210222, 0.592942], "properties": {}}, {"name": "H", "species": [{"element": "H", "occu": 1}], "xyz": [0.021724, 1.613484, -0.189591], "properties": {}}, {"name": "H", "species": [{"element": "H", "occu": 1}], "xyz": [4.503434, 1.482871, -0.123089], "properties": {}}, {"name": "H", "species": [{"element": "H", "occu": 1}], "xyz": [4.656165, 2.91737, -1.153941], "properties": {}}, {"name": "H", "species": [{"element": "H", "occu": 1}], "xyz": [4.504941, 3.097598, 0.603767], "properties": {}}]}, "smiles": "FC(F)(O[C@@H](CC)C)C(F)(F)F", "inchi": "InChI=1S/C6H9F5O/c1-3-4(2)12-6(10,11)5(7,8)9/h4H,3H2,1-2H3/t4-/m1/s1", "formula_alphabetical": "C6 F5 H9 O1", "chemsys": "C-F-H-O", "energy": -808.544411513, "esp": {"1": ["F", -0.181426], "2": ["F", -0.176595], "3": ["F", -0.164358], "4": ["F", -0.163294], "5": ["F", -0.162394], "6": ["O", -0.336919], "7": ["C", 0.348167], "8": ["C", -0.049919], "9": ["C", -0.555911], "10": ["C", 0.311481], "11": ["C", -0.237559], "12": ["C", 0.512889], "13": ["H", 0.07819], "14": ["H", 0.057633], "15": ["H", 0.041247], "16": ["H", 0.173975], "17": ["H", 0.133396], "18": ["H", 0.158051], "19": ["H", 0.079877], "20": ["H", 0.073933], "21": ["H", 0.059537]}, "dipole_moment": {"X": -0.8776, "Y": 2.7984, "Z": -1.6034, "Tot": 3.3425}, "functional": "B3LYP", "basis": "6-31+G*", "phase": "gas", "tag": "lis", "state": "successful", "wall_time (s)": 10.826335186022334, "version": "0.0.1", "gauss_version": "ES64L-G16RevC.01", "last_updated": "2021-09-14 22:34:18.390000", "polarizability": 79.77, "fluorinated-solvent": "57689081", "run_ids": ["6141234f8a0ed58b2f3002a2", "61412361164a45eeba8df4d8"]}