{"_id": "61410c2fed7841e48070c4b6", "molecule": {"@module": "pymatgen.core.structure", "@class": "Molecule", "charge": 0, "spin_multiplicity": 1, "sites": [{"name": "F", "species": [{"element": "F", "occu": 1}], "xyz": [2.109466, -0.80041, 3.305611], "properties": {}}, {"name": "F", "species": [{"element": "F", "occu": 1}], "xyz": [0.694971, -1.025659, 1.650999], "properties": {}}, {"name": "F", "species": [{"element": "F", "occu": 1}], "xyz": [4.11883, -2.005278, 1.799039], "properties": {}}, {"name": "F", "species": [{"element": "F", "occu": 1}], "xyz": [3.083299, -4.45053, 1.453047], "properties": {}}, {"name": "F", "species": [{"element": "F", "occu": 1}], "xyz": [2.256971, -3.563893, 3.263361], "properties": {}}, {"name": "F", "species": [{"element": "F", "occu": 1}], "xyz": [1.032712, -3.708778, 1.459837], "properties": {}}, {"name": "O", "species": [{"element": "O", "occu": 1}], "xyz": [2.554935, 0.211323, 1.341709], "properties": {}}, {"name": "C", "species": [{"element": "C", "occu": 1}], "xyz": [2.720599, 2.582071, 0.922194], "properties": {}}, {"name": "C", "species": [{"element": "C", "occu": 1}], "xyz": [2.029274, 1.50715, 1.756719], "properties": {}}, {"name": "C", "species": [{"element": "C", "occu": 1}], "xyz": [2.038928, -0.8764, 1.937025], "properties": {}}, {"name": "C", "species": [{"element": "C", "occu": 1}], "xyz": [2.796143, -2.114888, 1.419753], "properties": {}}, {"name": "C", "species": [{"element": "C", "occu": 1}], "xyz": [4.234802, 2.609144, 1.179864], "properties": {}}, {"name": "C", "species": [{"element": "C", "occu": 1}], "xyz": [2.400867, 2.432273, -0.57273], "properties": {}}, {"name": "C", "species": [{"element": "C", "occu": 1}], "xyz": [2.277206, -3.473326, 1.924025], "properties": {}}, {"name": "H", "species": [{"element": "H", "occu": 1}], "xyz": [2.290906, 3.532351, 1.274763], "properties": {}}, {"name": "H", "species": [{"element": "H", "occu": 1}], "xyz": [0.94612, 1.508372, 1.593224], "properties": {}}, {"name": "H", "species": [{"element": "H", "occu": 1}], "xyz": [2.23681, 1.635611, 2.823783], "properties": {}}, {"name": "H", "species": [{"element": "H", "occu": 1}], "xyz": [2.736023, -2.119617, 0.327772], "properties": {}}, {"name": "H", "species": [{"element": "H", "occu": 1}], "xyz": [4.700153, 1.67139, 0.856973], "properties": {}}, {"name": "H", "species": [{"element": "H", "occu": 1}], "xyz": [4.705146, 3.43047, 0.627061], "properties": {}}, {"name": "H", "species": [{"element": "H", "occu": 1}], "xyz": [4.457284, 2.746591, 2.245246], "properties": {}}, {"name": "H", "species": [{"element": "H", "occu": 1}], "xyz": [1.31874, 2.431298, -0.753764], "properties": {}}, {"name": "H", "species": [{"element": "H", "occu": 1}], "xyz": [2.838973, 3.257842, -1.145252], "properties": {}}, {"name": "H", "species": [{"element": "H", "occu": 1}], "xyz": [2.810682, 1.494736, -0.964812], "properties": {}}]}, "smiles": "FC(F)(OCC(C)C)[C@@H](F)C(F)(F)F", "inchi": "InChI=1S/C7H10F6O/c1-4(2)3-14-7(12,13)5(8)6(9,10)11/h4-5H,3H2,1-2H3/t5-/m0/s1", "formula_alphabetical": "C7 F6 H10 O1", "chemsys": "C-F-H-O", "energy": -947.093624469, "esp": {"1": ["F", -0.151316], "2": ["F", -0.184847], "3": ["F", -0.171398], "4": ["F", -0.197691], "5": ["F", -0.17095], "6": ["F", -0.200903], "7": ["O", -0.16151], "8": ["C", 0.419026], "9": ["C", -0.252297], "10": ["C", 0.331216], "11": ["C", -0.053631], "12": ["C", -0.384627], "13": ["C", -0.412128], "14": ["C", 0.602834], "15": ["H", -0.029174], "16": ["H", 0.136227], "17": ["H", 0.135876], "18": ["H", 0.166552], "19": ["H", 0.100514], "20": ["H", 0.09084], "21": ["H", 0.091593], "22": ["H", 0.094321], "23": ["H", 0.10333], "24": ["H", 0.098141]}, "dipole_moment": {"X": -0.1917, "Y": 3.2849, "Z": -1.6051, "Tot": 3.6611}, "functional": "B3LYP", "basis": "6-31+G*", "phase": "gas", "tag": "lis", "state": "successful", "wall_time (s)": 13.98030888196081, "version": "0.0.1", "gauss_version": "ES64L-G16RevC.01", "last_updated": "2021-09-14 20:55:11.525000", "polarizability": 92.08, "fluorinated-solvent": "139683146", "run_ids": ["61410b439386b37a401309fb", "61410bef8d2a3444bdef3d4a"]}