{"_id": "61412c2b8ba507b988d2bab5", "molecule": {"@module": "pymatgen.core.structure", "@class": "Molecule", "charge": 0, "spin_multiplicity": 1, "sites": [{"name": "F", "species": [{"element": "F", "occu": 1}], "xyz": [1.015972, 0.010715, 0.171373], "properties": {}}, {"name": "F", "species": [{"element": "F", "occu": 1}], "xyz": [2.791664, -1.169831, 0.750528], "properties": {}}, {"name": "F", "species": [{"element": "F", "occu": 1}], "xyz": [2.780714, 1.036024, 2.115141], "properties": {}}, {"name": "F", "species": [{"element": "F", "occu": 1}], "xyz": [4.344021, 1.144016, 0.557016], "properties": {}}, {"name": "F", "species": [{"element": "F", "occu": 1}], "xyz": [2.944186, 3.120246, -3.679225], "properties": {}}, {"name": "F", "species": [{"element": "F", "occu": 1}], "xyz": [2.053199, 3.172546, -6.252197], "properties": {}}, {"name": "F", "species": [{"element": "F", "occu": 1}], "xyz": [3.707477, 1.765526, -6.049084], "properties": {}}, {"name": "F", "species": [{"element": "F", "occu": 1}], "xyz": [1.658735, 1.022957, -6.231793], "properties": {}}, {"name": "O", "species": [{"element": "O", "occu": 1}], "xyz": [2.317706, 0.803081, -2.168661], "properties": {}}, {"name": "C", "species": [{"element": "C", "occu": 1}], "xyz": [2.381854, -0.055596, 0.065621], "properties": {}}, {"name": "C", "species": [{"element": "C", "occu": 1}], "xyz": [2.784043, -0.277638, -1.387908], "properties": {}}, {"name": "C", "species": [{"element": "C", "occu": 1}], "xyz": [2.977479, 1.19676, 0.76573], "properties": {}}, {"name": "C", "species": [{"element": "C", "occu": 1}], "xyz": [2.745064, 0.754435, -3.517057], "properties": {}}, {"name": "C", "species": [{"element": "C", "occu": 1}], "xyz": [2.242292, 2.026712, -4.176949], "properties": {}}, {"name": "C", "species": [{"element": "C", "occu": 1}], "xyz": [2.438949, 2.537524, 0.332863], "properties": {}}, {"name": "C", "species": [{"element": "C", "occu": 1}], "xyz": [2.425869, 2.006334, -5.69689], "properties": {}}, {"name": "H", "species": [{"element": "H", "occu": 1}], "xyz": [3.877773, -0.366007, -1.430455], "properties": {}}, {"name": "H", "species": [{"element": "H", "occu": 1}], "xyz": [2.331564, -1.22834, -1.705885], "properties": {}}, {"name": "H", "species": [{"element": "H", "occu": 1}], "xyz": [3.841977, 0.719043, -3.58471], "properties": {}}, {"name": "H", "species": [{"element": "H", "occu": 1}], "xyz": [2.32729, -0.123725, -4.032454], "properties": {}}, {"name": "H", "species": [{"element": "H", "occu": 1}], "xyz": [1.179783, 2.181254, -3.963754], "properties": {}}, {"name": "H", "species": [{"element": "H", "occu": 1}], "xyz": [2.654419, 2.711093, -0.722039], "properties": {}}, {"name": "H", "species": [{"element": "H", "occu": 1}], "xyz": [1.358588, 2.568344, 0.49197], "properties": {}}, {"name": "H", "species": [{"element": "H", "occu": 1}], "xyz": [2.921114, 3.303816, 0.946109], "properties": {}}]}, "smiles": "FC(F)(COC[C@@H](F)C(F)(F)F)C(F)(F)C", "inchi": "InChI=1S/C7H8F8O/c1-5(9,10)6(11,12)3-16-2-4(8)7(13,14)15/h4H,2-3H2,1H3/t4-/m1/s1", "formula_alphabetical": "C7 F8 H8 O1", "chemsys": "C-F-H-O", "energy": -1145.57559145, "esp": {"1": ["F", -0.195505], "2": ["F", -0.211031], "3": ["F", -0.23002], "4": ["F", -0.240649], "5": ["F", -0.206489], "6": ["F", -0.194853], "7": ["F", -0.21126], "8": ["F", -0.222211], "9": ["O", -0.246865], "10": ["C", 0.346898], "11": ["C", -0.194237], "12": ["C", 0.541669], "13": ["C", 0.067754], "14": ["C", -0.01272], "15": ["C", -0.54121], "16": ["C", 0.641622], "17": ["H", 0.130967], "18": ["H", 0.164416], "19": ["H", 0.096443], "20": ["H", 0.061343], "21": ["H", 0.131108], "22": ["H", 0.18571], "23": ["H", 0.15953], "24": ["H", 0.179589]}, "dipole_moment": {"X": -0.6046, "Y": -0.4922, "Z": -1.9858, "Tot": 2.1334}, "functional": "B3LYP", "basis": "6-31+G*", "phase": "gas", "tag": "lis", "state": "successful", "wall_time (s)": 17.731174809043296, "version": "0.0.1", "gauss_version": "ES64L-G16RevC.01", "last_updated": "2021-09-14 23:11:39.099000", "polarizability": 92.96, "fluorinated-solvent": "58114579", "run_ids": ["61412c0bc3a1a248368fbdfa", "61412c26118ec6e3655fdcb1"]}