{"_id": "61411c364120ceec142c3d3b", "molecule": {"@module": "pymatgen.core.structure", "@class": "Molecule", "charge": 0, "spin_multiplicity": 1, "sites": [{"name": "F", "species": [{"element": "F", "occu": 1}], "xyz": [0.577725, 3.522875, -0.750964], "properties": {}}, {"name": "F", "species": [{"element": "F", "occu": 1}], "xyz": [0.737992, 1.520097, 0.108638], "properties": {}}, {"name": "F", "species": [{"element": "F", "occu": 1}], "xyz": [2.972548, 4.247127, 0.504961], "properties": {}}, {"name": "F", "species": [{"element": "F", "occu": 1}], "xyz": [1.422167, 3.467806, 1.873283], "properties": {}}, {"name": "F", "species": [{"element": "F", "occu": 1}], "xyz": [1.843752, -3.42784, -1.930588], "properties": {}}, {"name": "F", "species": [{"element": "F", "occu": 1}], "xyz": [-0.300364, -3.107844, -2.209656], "properties": {}}, {"name": "F", "species": [{"element": "F", "occu": 1}], "xyz": [1.12735, -2.348544, -3.684589], "properties": {}}, {"name": "O", "species": [{"element": "O", "occu": 1}], "xyz": [2.352815, 2.243879, -1.296668], "properties": {}}, {"name": "O", "species": [{"element": "O", "occu": 1}], "xyz": [2.245725, -0.621991, -1.650106], "properties": {}}, {"name": "C", "species": [{"element": "C", "occu": 1}], "xyz": [1.793594, 1.643104, -2.490712], "properties": {}}, {"name": "C", "species": [{"element": "C", "occu": 1}], "xyz": [2.460032, 0.295387, -2.721792], "properties": {}}, {"name": "C", "species": [{"element": "C", "occu": 1}], "xyz": [1.491309, 2.593806, -0.325558], "properties": {}}, {"name": "C", "species": [{"element": "C", "occu": 1}], "xyz": [0.978394, -1.22783, -1.57327], "properties": {}}, {"name": "C", "species": [{"element": "C", "occu": 1}], "xyz": [2.288498, 3.130449, 0.878889], "properties": {}}, {"name": "C", "species": [{"element": "C", "occu": 1}], "xyz": [0.92329, -2.538894, -2.353194], "properties": {}}, {"name": "H", "species": [{"element": "H", "occu": 1}], "xyz": [0.70879, 1.556143, -2.389151], "properties": {}}, {"name": "H", "species": [{"element": "H", "occu": 1}], "xyz": [2.009643, 2.317236, -3.32568], "properties": {}}, {"name": "H", "species": [{"element": "H", "occu": 1}], "xyz": [2.119717, -0.115892, -3.681719], "properties": {}}, {"name": "H", "species": [{"element": "H", "occu": 1}], "xyz": [3.544487, 0.426764, -2.767247], "properties": {}}, {"name": "H", "species": [{"element": "H", "occu": 1}], "xyz": [0.784458, -1.460311, -0.522891], "properties": {}}, {"name": "H", "species": [{"element": "H", "occu": 1}], "xyz": [0.165087, -0.590194, -1.941678], "properties": {}}, {"name": "H", "species": [{"element": "H", "occu": 1}], "xyz": [2.991901, 2.379106, 1.247673], "properties": {}}]}, "smiles": "FC(F)(OCCOCC(F)(F)F)C(F)F", "inchi": "InChI=1S/C6H7F7O2/c7-4(8)6(12,13)15-2-1-14-3-5(9,10)11/h4H,1-3H2", "formula_alphabetical": "C6 F7 H7 O2", "chemsys": "C-F-H-O", "energy": -1082.23408394, "esp": {"1": ["F", -0.182543], "2": ["F", -0.212802], "3": ["F", -0.203396], "4": ["F", -0.202978], "5": ["F", -0.211321], "6": ["F", -0.254691], "7": ["F", -0.213299], "8": ["O", -0.350201], "9": ["O", -0.305086], "10": ["C", 0.142165], "11": ["C", -0.106357], "12": ["C", 0.430002], "13": ["C", -0.148756], "14": ["C", 0.333347], "15": ["C", 0.682976], "16": ["H", 0.083782], "17": ["H", 0.077044], "18": ["H", 0.094097], "19": ["H", 0.1532], "20": ["H", 0.159455], "21": ["H", 0.125904], "22": ["H", 0.109459]}, "dipole_moment": {"X": 0.4376, "Y": 0.0673, "Z": -1.6931, "Tot": 1.75}, "functional": "B3LYP", "basis": "6-31+G*", "phase": "gas", "tag": "lis", "state": "successful", "wall_time (s)": 14.115083380020224, "version": "0.0.1", "gauss_version": "ES64L-G16RevC.01", "last_updated": "2021-09-14 22:03:34.543000", "polarizability": 85.08, "fluorinated-solvent": "88850861", "run_ids": ["61411c1b5e592287b6f3c5d7", "61411c2fe9e0794831b1e142"]}