{"_id": "614121286442ff9c9290dbd3", "molecule": {"@module": "pymatgen.core.structure", "@class": "Molecule", "charge": 0, "spin_multiplicity": 1, "sites": [{"name": "F", "species": [{"element": "F", "occu": 1}], "xyz": [1.143848, -0.566446, 0.243659], "properties": {}}, {"name": "F", "species": [{"element": "F", "occu": 1}], "xyz": [3.151775, -1.427984, 0.372571], "properties": {}}, {"name": "F", "species": [{"element": "F", "occu": 1}], "xyz": [2.067373, 1.872531, 1.078654], "properties": {}}, {"name": "F", "species": [{"element": "F", "occu": 1}], "xyz": [2.51645, 0.198261, 2.440863], "properties": {}}, {"name": "O", "species": [{"element": "O", "occu": 1}], "xyz": [2.787741, 0.273915, -1.072834], "properties": {}}, {"name": "C", "species": [{"element": "C", "occu": 1}], "xyz": [2.247634, -0.276594, -2.328779], "properties": {}}, {"name": "C", "species": [{"element": "C", "occu": 1}], "xyz": [2.472785, -0.245869, 0.124328], "properties": {}}, {"name": "C", "species": [{"element": "C", "occu": 1}], "xyz": [2.863238, 0.762365, 1.237755], "properties": {}}, {"name": "C", "species": [{"element": "C", "occu": 1}], "xyz": [2.282838, -1.800589, -2.385965], "properties": {}}, {"name": "C", "species": [{"element": "C", "occu": 1}], "xyz": [0.870862, 0.319902, -2.606756], "properties": {}}, {"name": "C", "species": [{"element": "C", "occu": 1}], "xyz": [4.318713, 1.158941, 1.248086], "properties": {}}, {"name": "H", "species": [{"element": "H", "occu": 1}], "xyz": [2.965847, 0.125778, -3.049291], "properties": {}}, {"name": "H", "species": [{"element": "H", "occu": 1}], "xyz": [1.575285, -2.247736, -1.681956], "properties": {}}, {"name": "H", "species": [{"element": "H", "occu": 1}], "xyz": [2.003414, -2.115666, -3.398034], "properties": {}}, {"name": "H", "species": [{"element": "H", "occu": 1}], "xyz": [3.283544, -2.182816, -2.16653], "properties": {}}, {"name": "H", "species": [{"element": "H", "occu": 1}], "xyz": [0.896235, 1.408047, -2.491128], "properties": {}}, {"name": "H", "species": [{"element": "H", "occu": 1}], "xyz": [0.576897, 0.086827, -3.637167], "properties": {}}, {"name": "H", "species": [{"element": "H", "occu": 1}], "xyz": [0.115543, -0.086392, -1.928904], "properties": {}}, {"name": "H", "species": [{"element": "H", "occu": 1}], "xyz": [4.941907, 0.27364, 1.395621], "properties": {}}, {"name": "H", "species": [{"element": "H", "occu": 1}], "xyz": [4.577834, 1.635413, 0.300393], "properties": {}}, {"name": "H", "species": [{"element": "H", "occu": 1}], "xyz": [4.477585, 1.860312, 2.071617], "properties": {}}]}, "smiles": "FC(F)(OC(C)C)C(F)(F)C", "inchi": "InChI=1S/C6H10F4O/c1-4(2)11-6(9,10)5(3,7)8/h4H,1-3H3", "formula_alphabetical": "C6 F4 H10 O1", "chemsys": "C-F-H-O", "energy": -709.300248459, "esp": {"1": ["F", -0.213072], "2": ["F", -0.227839], "3": ["F", -0.247336], "4": ["F", -0.255301], "5": ["O", -0.483881], "6": ["C", 0.627216], "7": ["C", 0.465074], "8": ["C", 0.565235], "9": ["C", -0.563254], "10": ["C", -0.517892], "11": ["C", -0.450884], "12": ["H", -0.002115], "13": ["H", 0.169666], "14": ["H", 0.131622], "15": ["H", 0.152219], "16": ["H", 0.134902], "17": ["H", 0.116537], "18": ["H", 0.160285], "19": ["H", 0.142575], "20": ["H", 0.138976], "21": ["H", 0.157266]}, "dipole_moment": {"X": 1.4759, "Y": 0.1076, "Z": -3.0469, "Tot": 3.3872}, "functional": "B3LYP", "basis": "6-31+G*", "phase": "gas", "tag": "lis", "state": "successful", "wall_time (s)": 9.988817790988833, "version": "0.0.1", "gauss_version": "ES64L-G16RevC.01", "last_updated": "2021-09-14 22:24:39.740000", "polarizability": 78.22, "fluorinated-solvent": "58165353", "run_ids": ["61412111aae8b2d9457ced77", "61412123f07e114e2e51b821"]}