{"_id": "613a5703327edbc89755d28c", "molecule": {"@module": "pymatgen.core.structure", "@class": "Molecule", "charge": 0, "spin_multiplicity": 1, "sites": [{"name": "F", "species": [{"element": "F", "occu": 1}], "xyz": [2.315292, -2.8991, 0.789105], "properties": {}}, {"name": "F", "species": [{"element": "F", "occu": 1}], "xyz": [0.688039, -1.523883, 0.283023], "properties": {}}, {"name": "F", "species": [{"element": "F", "occu": 1}], "xyz": [3.762874, -1.998779, -1.421687], "properties": {}}, {"name": "F", "species": [{"element": "F", "occu": 1}], "xyz": [1.736512, -2.734888, -1.905283], "properties": {}}, {"name": "O", "species": [{"element": "O", "occu": 1}], "xyz": [2.718877, -0.677024, 0.782579], "properties": {}}, {"name": "C", "species": [{"element": "C", "occu": 1}], "xyz": [2.325544, 2.022161, 1.920665], "properties": {}}, {"name": "C", "species": [{"element": "C", "occu": 1}], "xyz": [3.061794, 0.856463, 2.6008], "properties": {}}, {"name": "C", "species": [{"element": "C", "occu": 1}], "xyz": [0.824866, 2.103058, 2.234224], "properties": {}}, {"name": "C", "species": [{"element": "C", "occu": 1}], "xyz": [2.550254, -0.52539, 2.223893], "properties": {}}, {"name": "C", "species": [{"element": "C", "occu": 1}], "xyz": [0.166923, 3.34902, 1.629119], "properties": {}}, {"name": "C", "species": [{"element": "C", "occu": 1}], "xyz": [2.058474, -1.689612, 0.198422], "properties": {}}, {"name": "C", "species": [{"element": "C", "occu": 1}], "xyz": [2.431815, -1.734916, -1.296161], "properties": {}}, {"name": "H", "species": [{"element": "H", "occu": 1}], "xyz": [2.972712, 0.944002, 3.693209], "properties": {}}, {"name": "H", "species": [{"element": "H", "occu": 1}], "xyz": [4.132593, 0.907808, 2.365339], "properties": {}}, {"name": "H", "species": [{"element": "H", "occu": 1}], "xyz": [2.807457, 2.959027, 2.233866], "properties": {}}, {"name": "H", "species": [{"element": "H", "occu": 1}], "xyz": [2.466653, 1.951455, 0.83408], "properties": {}}, {"name": "H", "species": [{"element": "H", "occu": 1}], "xyz": [0.314054, 1.208877, 1.852536], "properties": {}}, {"name": "H", "species": [{"element": "H", "occu": 1}], "xyz": [0.679578, 2.102812, 3.32501], "properties": {}}, {"name": "H", "species": [{"element": "H", "occu": 1}], "xyz": [1.491533, -0.65133, 2.468212], "properties": {}}, {"name": "H", "species": [{"element": "H", "occu": 1}], "xyz": [3.125823, -1.315143, 2.716324], "properties": {}}, {"name": "H", "species": [{"element": "H", "occu": 1}], "xyz": [0.279267, 3.361105, 0.537307], "properties": {}}, {"name": "H", "species": [{"element": "H", "occu": 1}], "xyz": [-0.905326, 3.385898, 1.854975], "properties": {}}, {"name": "H", "species": [{"element": "H", "occu": 1}], "xyz": [0.624381, 4.267096, 2.019853], "properties": {}}, {"name": "H", "species": [{"element": "H", "occu": 1}], "xyz": [2.204049, -0.784476, -1.786411], "properties": {}}]}, "smiles": "FC(F)(OCCCCC)C(F)F", "inchi": "InChI=1S/C7H12F4O/c1-2-3-4-5-12-7(10,11)6(8)9/h6H,2-5H2,1H3", "formula_alphabetical": "C7 F4 H12 O1", "chemsys": "C-F-H-O", "energy": -748.603262524, "esp": {"1": ["F", -0.175211], "2": ["F", -0.21461], "3": ["F", -0.212604], "4": ["F", -0.211397], "5": ["O", -0.339728], "6": ["C", 0.092115], "7": ["C", -0.235369], "8": ["C", 0.185807], "9": ["C", 0.117632], "10": ["C", -0.352667], "11": ["C", 0.405405], "12": ["C", 0.35515], "13": ["H", 0.064778], "14": ["H", 0.094542], "15": ["H", -0.005365], "16": ["H", -0.013288], "17": ["H", -0.000619], "18": ["H", -0.027354], "19": ["H", 0.049084], "20": ["H", 0.082065], "21": ["H", 0.078285], "22": ["H", 0.082856], "23": ["H", 0.078767], "24": ["H", 0.101722]}, "dipole_moment": {"X": 0.0601, "Y": 2.8704, "Z": 1.8697, "Tot": 3.4262}, "functional": "B3LYP", "basis": "6-31+G*", "phase": "gas", "tag": "lis", "state": "successful", "wall_time (s)": 11.435344557001372, "version": "0.0.1", "gauss_version": "ES64L-G16RevC.01", "last_updated": "2021-09-09 18:48:35.176000", "polarizability": 90.34, "fluorinated-solvent": "53657802", "run_ids": ["613a4afab02362bcea22ea69", "613a56faa68af61dc56fd3e0"]}