{"_id": "613a5137683d2c40bc62039e", "molecule": {"@module": "pymatgen.core.structure", "@class": "Molecule", "charge": 0, "spin_multiplicity": 1, "sites": [{"name": "F", "species": [{"element": "F", "occu": 1}], "xyz": [1.00753, 0.806233, 0.025274], "properties": {}}, {"name": "F", "species": [{"element": "F", "occu": 1}], "xyz": [2.556661, -0.156899, -1.227093], "properties": {}}, {"name": "F", "species": [{"element": "F", "occu": 1}], "xyz": [4.786908, -0.391607, 1.108506], "properties": {}}, {"name": "F", "species": [{"element": "F", "occu": 1}], "xyz": [5.203447, 0.710502, -0.765957], "properties": {}}, {"name": "O", "species": [{"element": "O", "occu": 1}], "xyz": [2.968703, 1.759578, 1.798325], "properties": {}}, {"name": "C", "species": [{"element": "C", "occu": 1}], "xyz": [3.266024, 1.344165, 0.483173], "properties": {}}, {"name": "C", "species": [{"element": "C", "occu": 1}], "xyz": [2.273767, 0.261862, 0.046107], "properties": {}}, {"name": "C", "species": [{"element": "C", "occu": 1}], "xyz": [4.714125, 0.842891, 0.507163], "properties": {}}, {"name": "C", "species": [{"element": "C", "occu": 1}], "xyz": [2.154571, 2.940894, 1.916184], "properties": {}}, {"name": "C", "species": [{"element": "C", "occu": 1}], "xyz": [1.97218, 3.223633, 3.396107], "properties": {}}, {"name": "H", "species": [{"element": "H", "occu": 1}], "xyz": [3.213156, 2.172805, -0.237644], "properties": {}}, {"name": "H", "species": [{"element": "H", "occu": 1}], "xyz": [2.259357, -0.603737, 0.711486], "properties": {}}, {"name": "H", "species": [{"element": "H", "occu": 1}], "xyz": [5.359626, 1.527822, 1.063912], "properties": {}}, {"name": "H", "species": [{"element": "H", "occu": 1}], "xyz": [2.664253, 3.778044, 1.413836], "properties": {}}, {"name": "H", "species": [{"element": "H", "occu": 1}], "xyz": [1.189642, 2.777041, 1.422235], "properties": {}}, {"name": "H", "species": [{"element": "H", "occu": 1}], "xyz": [2.940729, 3.376844, 3.883946], "properties": {}}, {"name": "H", "species": [{"element": "H", "occu": 1}], "xyz": [1.364717, 4.125802, 3.532546], "properties": {}}, {"name": "H", "species": [{"element": "H", "occu": 1}], "xyz": [1.465843, 2.38573, 3.886663], "properties": {}}]}, "smiles": "FC(F)C(OCC)C(F)F", "inchi": "InChI=1S/C5H8F4O/c1-2-10-3(4(6)7)5(8)9/h3-5H,2H2,1H3", "formula_alphabetical": "C5 F4 H8 O1", "chemsys": "C-F-H-O", "energy": -669.959674756, "esp": {"1": ["F", -0.235021], "2": ["F", -0.240079], "3": ["F", -0.24703], "4": ["F", -0.254054], "5": ["O", -0.513346], "6": ["C", 0.092147], "7": ["C", 0.387968], "8": ["C", 0.42367], "9": ["C", 0.423627], "10": ["C", -0.362744], "11": ["H", 0.075593], "12": ["H", 0.100363], "13": ["H", 0.082805], "14": ["H", -0.023965], "15": ["H", -0.014428], "16": ["H", 0.106257], "17": ["H", 0.082502], "18": ["H", 0.115733]}, "dipole_moment": {"X": -0.3311, "Y": 2.8341, "Z": 1.8365, "Tot": 3.3933}, "functional": "B3LYP", "basis": "6-31+G*", "phase": "gas", "tag": "lis", "state": "successful", "wall_time (s)": 15.495333245024085, "version": "0.0.1", "gauss_version": "ES64L-G16RevC.01", "last_updated": "2021-09-09 18:23:51.400000", "polarizability": 67.45, "fluorinated-solvent": "53775264", "run_ids": ["613a4aa0609e392b4de257ed", "613a5131e629239950c1ce25"]}