{"_id": "61412e6332dab3b4d8ba6cdf", "molecule": {"@module": "pymatgen.core.structure", "@class": "Molecule", "charge": 0, "spin_multiplicity": 1, "sites": [{"name": "F", "species": [{"element": "F", "occu": 1}], "xyz": [0.928043, -0.251954, 0.376683], "properties": {}}, {"name": "F", "species": [{"element": "F", "occu": 1}], "xyz": [2.248068, 1.218087, -0.554624], "properties": {}}, {"name": "F", "species": [{"element": "F", "occu": 1}], "xyz": [3.028187, -0.161565, 0.945864], "properties": {}}, {"name": "O", "species": [{"element": "O", "occu": 1}], "xyz": [2.37074, -2.334278, -0.671481], "properties": {}}, {"name": "C", "species": [{"element": "C", "occu": 1}], "xyz": [2.555998, -1.043805, -1.217025], "properties": {}}, {"name": "C", "species": [{"element": "C", "occu": 1}], "xyz": [1.781132, -0.824407, -2.528737], "properties": {}}, {"name": "C", "species": [{"element": "C", "occu": 1}], "xyz": [3.217559, -3.348505, -1.213909], "properties": {}}, {"name": "C", "species": [{"element": "C", "occu": 1}], "xyz": [2.176454, -0.063471, -0.102258], "properties": {}}, {"name": "C", "species": [{"element": "C", "occu": 1}], "xyz": [2.861662, -4.670633, -0.54715], "properties": {}}, {"name": "C", "species": [{"element": "C", "occu": 1}], "xyz": [0.282798, -1.141109, -2.453882], "properties": {}}, {"name": "C", "species": [{"element": "C", "occu": 1}], "xyz": [1.424493, -5.118883, -0.836014], "properties": {}}, {"name": "H", "species": [{"element": "H", "occu": 1}], "xyz": [3.626219, -0.852201, -1.396759], "properties": {}}, {"name": "H", "species": [{"element": "H", "occu": 1}], "xyz": [1.94616, 0.207809, -2.859893], "properties": {}}, {"name": "H", "species": [{"element": "H", "occu": 1}], "xyz": [2.253278, -1.466296, -3.283193], "properties": {}}, {"name": "H", "species": [{"element": "H", "occu": 1}], "xyz": [3.073264, -3.422791, -2.30383], "properties": {}}, {"name": "H", "species": [{"element": "H", "occu": 1}], "xyz": [4.270918, -3.08443, -1.025807], "properties": {}}, {"name": "H", "species": [{"element": "H", "occu": 1}], "xyz": [3.57501, -5.427687, -0.901091], "properties": {}}, {"name": "H", "species": [{"element": "H", "occu": 1}], "xyz": [3.014713, -4.566076, 0.534615], "properties": {}}, {"name": "H", "species": [{"element": "H", "occu": 1}], "xyz": [-0.249486, -0.435167, -1.809566], "properties": {}}, {"name": "H", "species": [{"element": "H", "occu": 1}], "xyz": [-0.162786, -1.089919, -3.453696], "properties": {}}, {"name": "H", "species": [{"element": "H", "occu": 1}], "xyz": [0.119856, -2.147473, -2.054926], "properties": {}}, {"name": "H", "species": [{"element": "H", "occu": 1}], "xyz": [1.259422, -5.239968, -1.914941], "properties": {}}, {"name": "H", "species": [{"element": "H", "occu": 1}], "xyz": [1.207363, -6.078939, -0.353775], "properties": {}}, {"name": "H", "species": [{"element": "H", "occu": 1}], "xyz": [0.706988, -4.379919, -0.465237], "properties": {}}]}, "smiles": "FC(F)(F)[C@@H](OCCC)CC", "inchi": "InChI=1S/C7H13F3O/c1-3-5-11-6(4-2)7(8,9)10/h6H,3-5H2,1-2H3/t6-/m0/s1", "formula_alphabetical": "C7 F3 H13 O1", "chemsys": "C-F-H-O", "energy": -649.358624916, "esp": {"1": ["F", -0.175724], "2": ["F", -0.198004], "3": ["F", -0.188772], "4": ["O", -0.320562], "5": ["C", -0.033507], "6": ["C", 0.141699], "7": ["C", 0.017316], "8": ["C", 0.507453], "9": ["C", 0.115509], "10": ["C", -0.150219], "11": ["C", -0.16776], "12": ["H", 0.087343], "13": ["H", -0.010401], "14": ["H", -0.001022], "15": ["H", 0.060977], "16": ["H", 0.045654], "17": ["H", -0.015396], "18": ["H", 0.017112], "19": ["H", 0.052309], "20": ["H", 0.031616], "21": ["H", 0.049534], "22": ["H", 0.044953], "23": ["H", 0.03856], "24": ["H", 0.051332]}, "dipole_moment": {"X": 1.143, "Y": -1.7942, "Z": -2.6023, "Tot": 3.3612}, "functional": "B3LYP", "basis": "6-31+G*", "phase": "gas", "tag": "lis", "state": "successful", "wall_time (s)": 11.394649995025247, "version": "0.0.1", "gauss_version": "ES64L-G16RevC.01", "last_updated": "2021-09-14 23:21:07.430000", "polarizability": 89.39, "fluorinated-solvent": "142287258", "run_ids": ["61412e4d064d9c5dee41bb50", "61412e5fa83e10e3a42ae011"]}