{"_id": "6141103d9c184444b6d581a4", "molecule": {"@module": "pymatgen.core.structure", "@class": "Molecule", "charge": 0, "spin_multiplicity": 1, "sites": [{"name": "F", "species": [{"element": "F", "occu": 1}], "xyz": [2.732741, -0.028244, 4.070107], "properties": {}}, {"name": "F", "species": [{"element": "F", "occu": 1}], "xyz": [0.787055, -0.395245, 3.143624], "properties": {}}, {"name": "F", "species": [{"element": "F", "occu": 1}], "xyz": [2.191781, -2.678927, 3.677027], "properties": {}}, {"name": "F", "species": [{"element": "F", "occu": 1}], "xyz": [1.92765, -2.369895, 1.533198], "properties": {}}, {"name": "F", "species": [{"element": "F", "occu": 1}], "xyz": [3.871333, -2.003313, 2.45888], "properties": {}}, {"name": "O", "species": [{"element": "O", "occu": 1}], "xyz": [2.494255, 0.321411, 1.853478], "properties": {}}, {"name": "O", "species": [{"element": "O", "occu": 1}], "xyz": [2.402628, 3.726061, 0.695729], "properties": {}}, {"name": "C", "species": [{"element": "C", "occu": 1}], "xyz": [2.189101, 1.739577, 1.9311], "properties": {}}, {"name": "C", "species": [{"element": "C", "occu": 1}], "xyz": [2.136652, -0.431243, 2.902599], "properties": {}}, {"name": "C", "species": [{"element": "C", "occu": 1}], "xyz": [2.694668, 2.344708, 0.631842], "properties": {}}, {"name": "C", "species": [{"element": "C", "occu": 1}], "xyz": [2.542754, -1.90821, 2.634844], "properties": {}}, {"name": "C", "species": [{"element": "C", "occu": 1}], "xyz": [2.818929, 4.43828, -0.459043], "properties": {}}, {"name": "H", "species": [{"element": "H", "occu": 1}], "xyz": [1.1091, 1.877333, 2.032046], "properties": {}}, {"name": "H", "species": [{"element": "H", "occu": 1}], "xyz": [2.701171, 2.17837, 2.791809], "properties": {}}, {"name": "H", "species": [{"element": "H", "occu": 1}], "xyz": [3.778156, 2.169397, 0.532145], "properties": {}}, {"name": "H", "species": [{"element": "H", "occu": 1}], "xyz": [2.191141, 1.868901, -0.2253], "properties": {}}, {"name": "H", "species": [{"element": "H", "occu": 1}], "xyz": [3.908448, 4.364809, -0.602147], "properties": {}}, {"name": "H", "species": [{"element": "H", "occu": 1}], "xyz": [2.314051, 4.063045, -1.363047], "properties": {}}, {"name": "H", "species": [{"element": "H", "occu": 1}], "xyz": [2.545796, 5.484286, -0.30156], "properties": {}}]}, "smiles": "FC(F)(OCCOC)C(F)(F)F", "inchi": "InChI=1S/C5H7F5O2/c1-11-2-3-12-5(9,10)4(6,7)8/h2-3H2,1H3", "formula_alphabetical": "C5 F5 H7 O2", "chemsys": "C-F-H-O", "energy": -844.427618467, "esp": {"1": ["F", -0.185717], "2": ["F", -0.187068], "3": ["F", -0.175192], "4": ["F", -0.166138], "5": ["F", -0.166304], "6": ["O", -0.437048], "7": ["O", -0.436613], "8": ["C", 0.229084], "9": ["C", 0.418809], "10": ["C", 0.17272], "11": ["C", 0.521832], "12": ["C", -0.004701], "13": ["H", 0.058941], "14": ["H", 0.057006], "15": ["H", 0.048376], "16": ["H", 0.047009], "17": ["H", 0.052185], "18": ["H", 0.054451], "19": ["H", 0.098368]}, "dipole_moment": {"X": 0.5669, "Y": 2.4972, "Z": -2.1784, "Tot": 3.362}, "functional": "B3LYP", "basis": "6-31+G*", "phase": "gas", "tag": "lis", "state": "successful", "wall_time (s)": 9.638565631932579, "version": "0.0.1", "gauss_version": "ES64L-G16RevC.01", "last_updated": "2021-09-14 21:12:29.596000", "polarizability": 73.48, "fluorinated-solvent": "87732721", "run_ids": ["614110189ff2ef544b8b360a", "61411034e22a1af15c53b53e"]}