{"_id": "613a4f93e17ed7c7b582b263", "molecule": {"@module": "pymatgen.core.structure", "@class": "Molecule", "charge": 0, "spin_multiplicity": 1, "sites": [{"name": "F", "species": [{"element": "F", "occu": 1}], "xyz": [3.673706, -0.312514, -0.79267], "properties": {}}, {"name": "F", "species": [{"element": "F", "occu": 1}], "xyz": [1.474137, -0.219752, -0.680288], "properties": {}}, {"name": "F", "species": [{"element": "F", "occu": 1}], "xyz": [2.686309, 2.235194, -0.608371], "properties": {}}, {"name": "F", "species": [{"element": "F", "occu": 1}], "xyz": [1.665615, 1.74105, 1.258496], "properties": {}}, {"name": "F", "species": [{"element": "F", "occu": 1}], "xyz": [3.845466, 1.648925, 1.147723], "properties": {}}, {"name": "F", "species": [{"element": "F", "occu": 1}], "xyz": [3.69741, -3.321204, 2.37079], "properties": {}}, {"name": "F", "species": [{"element": "F", "occu": 1}], "xyz": [1.528187, -3.23017, 2.486947], "properties": {}}, {"name": "F", "species": [{"element": "F", "occu": 1}], "xyz": [2.484162, -4.485265, 0.974128], "properties": {}}, {"name": "O", "species": [{"element": "O", "occu": 1}], "xyz": [2.560189, -2.328385, 0.704174], "properties": {}}, {"name": "C", "species": [{"element": "C", "occu": 1}], "xyz": [2.621939, -0.061163, 0.034172], "properties": {}}, {"name": "C", "species": [{"element": "C", "occu": 1}], "xyz": [2.643559, -1.00132, 1.232571], "properties": {}}, {"name": "C", "species": [{"element": "C", "occu": 1}], "xyz": [2.706525, 1.43086, 0.458344], "properties": {}}, {"name": "C", "species": [{"element": "C", "occu": 1}], "xyz": [2.567453, -3.321591, 1.617906], "properties": {}}, {"name": "H", "species": [{"element": "H", "occu": 1}], "xyz": [3.577954, -0.862673, 1.784012], "properties": {}}, {"name": "H", "species": [{"element": "H", "occu": 1}], "xyz": [1.785451, -0.786811, 1.876029], "properties": {}}]}, "smiles": "FC(F)(COC(F)(F)F)C(F)(F)F", "inchi": "InChI=1S/C4H2F8O/c5-2(6,3(7,8)9)1-13-4(10,11)12/h1H2", "formula_alphabetical": "C4 F8 H2 O1", "chemsys": "C-F-H-O", "energy": -1027.64273306, "esp": {"1": ["F", -0.151661], "2": ["F", -0.152419], "3": ["F", -0.114094], "4": ["F", -0.143381], "5": ["F", -0.144367], "6": ["F", -0.190771], "7": ["F", -0.191769], "8": ["F", -0.164014], "9": ["O", -0.264477], "10": ["C", 0.29726], "11": ["C", -0.071062], "12": ["C", 0.37845], "13": ["C", 0.641736], "14": ["H", 0.135948], "15": ["H", 0.134621]}, "dipole_moment": {"X": 0.111, "Y": 0.9001, "Z": 1.4487, "Tot": 1.7092}, "functional": "B3LYP", "basis": "6-31+G*", "phase": "gas", "tag": "lis", "state": "successful", "wall_time (s)": 9.03363439196255, "version": "0.0.1", "gauss_version": "ES64L-G16RevC.01", "last_updated": "2021-09-09 18:16:51.349000", "polarizability": 58.85, "fluorinated-solvent": "2776020", "run_ids": ["613a4a7c39e827bd22dd1b50", "613a4f8e986973bfe9acf96c"]}