{"_id": "613a50adee6874b3a38666d4", "molecule": {"@module": "pymatgen.core.structure", "@class": "Molecule", "charge": 0, "spin_multiplicity": 1, "sites": [{"name": "F", "species": [{"element": "F", "occu": 1}], "xyz": [2.664413, -2.323068, 0.839126], "properties": {}}, {"name": "F", "species": [{"element": "F", "occu": 1}], "xyz": [2.227472, -2.943165, -1.200415], "properties": {}}, {"name": "F", "species": [{"element": "F", "occu": 1}], "xyz": [0.819616, -1.658337, -0.127164], "properties": {}}, {"name": "O", "species": [{"element": "O", "occu": 1}], "xyz": [2.696501, -0.778497, -0.797197], "properties": {}}, {"name": "C", "species": [{"element": "C", "occu": 1}], "xyz": [4.594048, 0.547439, -1.432459], "properties": {}}, {"name": "C", "species": [{"element": "C", "occu": 1}], "xyz": [4.431861, 1.553166, -0.28038], "properties": {}}, {"name": "C", "species": [{"element": "C", "occu": 1}], "xyz": [4.117434, -0.861597, -1.116767], "properties": {}}, {"name": "C", "species": [{"element": "C", "occu": 1}], "xyz": [5.21382, 1.186368, 0.987577], "properties": {}}, {"name": "C", "species": [{"element": "C", "occu": 1}], "xyz": [2.122617, -1.894153, -0.336798], "properties": {}}, {"name": "H", "species": [{"element": "H", "occu": 1}], "xyz": [5.653977, 0.469619, -1.714719], "properties": {}}, {"name": "H", "species": [{"element": "H", "occu": 1}], "xyz": [4.054689, 0.907355, -2.317958], "properties": {}}, {"name": "H", "species": [{"element": "H", "occu": 1}], "xyz": [4.763659, 2.535868, -0.640576], "properties": {}}, {"name": "H", "species": [{"element": "H", "occu": 1}], "xyz": [3.36621, 1.65315, -0.040906], "properties": {}}, {"name": "H", "species": [{"element": "H", "occu": 1}], "xyz": [4.642838, -1.289366, -0.257387], "properties": {}}, {"name": "H", "species": [{"element": "H", "occu": 1}], "xyz": [4.23668, -1.52747, -1.977546], "properties": {}}, {"name": "H", "species": [{"element": "H", "occu": 1}], "xyz": [6.280196, 1.039744, 0.769458], "properties": {}}, {"name": "H", "species": [{"element": "H", "occu": 1}], "xyz": [5.133687, 1.981325, 1.737918], "properties": {}}, {"name": "H", "species": [{"element": "H", "occu": 1}], "xyz": [4.835253, 0.266597, 1.449044], "properties": {}}]}, "smiles": "FC(F)(F)OCCCC", "inchi": "InChI=1S/C5H9F3O/c1-2-3-4-9-5(6,7)8/h2-4H2,1H3", "formula_alphabetical": "C5 F3 H9 O1", "chemsys": "C-F-H-O", "energy": -570.742756846, "esp": {"1": ["F", -0.214644], "2": ["F", -0.224136], "3": ["F", -0.193388], "4": ["O", -0.344436], "5": ["C", -0.217732], "6": ["C", 0.26451], "7": ["C", 0.156175], "8": ["C", -0.255894], "9": ["C", 0.68984], "10": ["H", 0.06489], "11": ["H", 0.068367], "12": ["H", -0.035462], "13": ["H", -0.03744], "14": ["H", 0.035394], "15": ["H", 0.060527], "16": ["H", 0.052892], "17": ["H", 0.055096], "18": ["H", 0.075441]}, "dipole_moment": {"X": 2.5423, "Y": 1.3565, "Z": -0.8092, "Tot": 2.9931}, "functional": "B3LYP", "basis": "6-31+G*", "phase": "gas", "tag": "lis", "state": "successful", "wall_time (s)": 14.364062874927185, "version": "0.0.1", "gauss_version": "ES64L-G16RevC.01", "last_updated": "2021-09-09 18:21:33.067000", "polarizability": 66.18, "fluorinated-solvent": "20725973", "run_ids": ["613a4a98d0278a5a1245ab3b", "613a50a880c2432e6acd91a6"]}