{"_id": "614122320bf1c88011b0ab1f", "molecule": {"@module": "pymatgen.core.structure", "@class": "Molecule", "charge": 0, "spin_multiplicity": 1, "sites": [{"name": "F", "species": [{"element": "F", "occu": 1}], "xyz": [1.034106, -0.107912, 0.125015], "properties": {}}, {"name": "F", "species": [{"element": "F", "occu": 1}], "xyz": [2.693577, -0.989036, -0.995696], "properties": {}}, {"name": "F", "species": [{"element": "F", "occu": 1}], "xyz": [2.350902, 3.425063, -3.186843], "properties": {}}, {"name": "F", "species": [{"element": "F", "occu": 1}], "xyz": [2.393815, 3.942309, -1.031945], "properties": {}}, {"name": "O", "species": [{"element": "O", "occu": 1}], "xyz": [2.783044, 1.195617, -0.44474], "properties": {}}, {"name": "C", "species": [{"element": "C", "occu": 1}], "xyz": [2.173583, 1.663933, -1.655728], "properties": {}}, {"name": "C", "species": [{"element": "C", "occu": 1}], "xyz": [2.409987, -0.045134, -0.018673], "properties": {}}, {"name": "C", "species": [{"element": "C", "occu": 1}], "xyz": [2.79903, 3.011409, -1.953491], "properties": {}}, {"name": "C", "species": [{"element": "C", "occu": 1}], "xyz": [3.094235, -0.402945, 1.274553], "properties": {}}, {"name": "H", "species": [{"element": "H", "occu": 1}], "xyz": [2.381938, 0.978628, -2.483158], "properties": {}}, {"name": "H", "species": [{"element": "H", "occu": 1}], "xyz": [1.093261, 1.78328, -1.529312], "properties": {}}, {"name": "H", "species": [{"element": "H", "occu": 1}], "xyz": [3.892849, 3.000507, -1.964485], "properties": {}}, {"name": "H", "species": [{"element": "H", "occu": 1}], "xyz": [2.821082, 0.325964, 2.040921], "properties": {}}, {"name": "H", "species": [{"element": "H", "occu": 1}], "xyz": [2.77421, -1.400903, 1.581917], "properties": {}}, {"name": "H", "species": [{"element": "H", "occu": 1}], "xyz": [4.176594, -0.391251, 1.127224], "properties": {}}]}, "smiles": "FC(F)(OCC(F)F)C", "inchi": "InChI=1S/C4H6F4O/c1-4(7,8)9-2-3(5)6/h3H,2H2,1H3", "formula_alphabetical": "C4 F4 H6 O1", "chemsys": "C-F-H-O", "energy": -630.672463213, "esp": {"1": ["F", -0.278398], "2": ["F", -0.277481], "3": ["F", -0.280467], "4": ["F", -0.251193], "5": ["O", -0.421609], "6": ["C", -0.095181], "7": ["C", 0.798042], "8": ["C", 0.518631], "9": ["C", -0.547676], "10": ["H", 0.114252], "11": ["H", 0.150342], "12": ["H", 0.060427], "13": ["H", 0.175202], "14": ["H", 0.167779], "15": ["H", 0.16733]}, "dipole_moment": {"X": 1.5946, "Y": -1.1588, "Z": 0.9223, "Tot": 2.1763}, "functional": "B3LYP", "basis": "6-31+G*", "phase": "gas", "tag": "lis", "state": "successful", "wall_time (s)": 6.53189346997533, "version": "0.0.1", "gauss_version": "ES64L-G16RevC.01", "last_updated": "2021-09-14 22:29:06.382000", "polarizability": 55.55, "fluorinated-solvent": "56776423", "run_ids": ["61412218f921c933ca67f4b6", "6141222ac2ad9231ae7b0e5b"]}