{"_id": "614115351cacf4c1f509f920", "molecule": {"@module": "pymatgen.core.structure", "@class": "Molecule", "charge": 0, "spin_multiplicity": 1, "sites": [{"name": "F", "species": [{"element": "F", "occu": 1}], "xyz": [0.957581, -0.115196, -0.228354], "properties": {}}, {"name": "F", "species": [{"element": "F", "occu": 1}], "xyz": [2.781036, -1.065881, 0.589344], "properties": {}}, {"name": "F", "species": [{"element": "F", "occu": 1}], "xyz": [4.919955, 1.221157, -0.185258], "properties": {}}, {"name": "O", "species": [{"element": "O", "occu": 1}], "xyz": [2.545628, 1.555687, -1.810215], "properties": {}}, {"name": "C", "species": [{"element": "C", "occu": 1}], "xyz": [3.013679, 0.314917, -1.323528], "properties": {}}, {"name": "C", "species": [{"element": "C", "occu": 1}], "xyz": [2.294991, 0.084402, 0.004078], "properties": {}}, {"name": "C", "species": [{"element": "C", "occu": 1}], "xyz": [4.529875, 0.29165, -1.160433], "properties": {}}, {"name": "C", "species": [{"element": "C", "occu": 1}], "xyz": [2.466913, 1.659056, -3.233501], "properties": {}}, {"name": "C", "species": [{"element": "C", "occu": 1}], "xyz": [1.964838, 3.051344, -3.573148], "properties": {}}, {"name": "H", "species": [{"element": "H", "occu": 1}], "xyz": [2.726437, -0.514316, -1.991728], "properties": {}}, {"name": "H", "species": [{"element": "H", "occu": 1}], "xyz": [2.405899, 0.910101, 0.709597], "properties": {}}, {"name": "H", "species": [{"element": "H", "occu": 1}], "xyz": [4.875248, -0.695283, -0.837701], "properties": {}}, {"name": "H", "species": [{"element": "H", "occu": 1}], "xyz": [5.019145, 0.573121, -2.098418], "properties": {}}, {"name": "H", "species": [{"element": "H", "occu": 1}], "xyz": [3.457461, 1.484829, -3.683271], "properties": {}}, {"name": "H", "species": [{"element": "H", "occu": 1}], "xyz": [1.78055, 0.887162, -3.616871], "properties": {}}, {"name": "H", "species": [{"element": "H", "occu": 1}], "xyz": [2.654581, 3.811074, -3.1908], "properties": {}}, {"name": "H", "species": [{"element": "H", "occu": 1}], "xyz": [1.881155, 3.168339, -4.659864], "properties": {}}, {"name": "H", "species": [{"element": "H", "occu": 1}], "xyz": [0.980086, 3.220826, -3.125347], "properties": {}}]}, "smiles": "FC(F)[C@@H](OCC)CF", "inchi": "InChI=1S/C5H9F3O/c1-2-9-4(3-6)5(7)8/h4-5H,2-3H2,1H3/t4-/m0/s1", "formula_alphabetical": "C5 F3 H9 O1", "chemsys": "C-F-H-O", "energy": -570.712593444, "esp": {"1": ["F", -0.264679], "2": ["F", -0.27337], "3": ["F", -0.236956], "4": ["O", -0.497812], "5": ["C", 0.179213], "6": ["C", 0.487837], "7": ["C", -0.024577], "8": ["C", 0.473532], "9": ["C", -0.353327], "10": ["H", 0.031019], "11": ["H", 0.066856], "12": ["H", 0.090075], "13": ["H", 0.126386], "14": ["H", -0.058489], "15": ["H", -0.030881], "16": ["H", 0.111398], "17": ["H", 0.07365], "18": ["H", 0.100126]}, "dipole_moment": {"X": 0.7785, "Y": -0.1059, "Z": -3.1951, "Tot": 3.2903}, "functional": "B3LYP", "basis": "6-31+G*", "phase": "gas", "tag": "lis", "state": "successful", "wall_time (s)": 7.637105930014513, "version": "0.0.1", "gauss_version": "ES64L-G16RevC.01", "last_updated": "2021-09-14 21:33:41.004000", "polarizability": 66.63, "fluorinated-solvent": "57169094", "run_ids": ["6141150798507ef901f347ad", "6141151fa50016dab7b6191f"]}