{"_id": "61412961b641fa348c1c0467", "molecule": {"@module": "pymatgen.core.structure", "@class": "Molecule", "charge": 0, "spin_multiplicity": 1, "sites": [{"name": "F", "species": [{"element": "F", "occu": 1}], "xyz": [1.294212, -0.030697, -0.229222], "properties": {}}, {"name": "F", "species": [{"element": "F", "occu": 1}], "xyz": [3.202441, -0.898194, -0.897376], "properties": {}}, {"name": "F", "species": [{"element": "F", "occu": 1}], "xyz": [4.182287, 3.596438, 0.855241], "properties": {}}, {"name": "F", "species": [{"element": "F", "occu": 1}], "xyz": [6.134564, 2.995168, 0.009713], "properties": {}}, {"name": "F", "species": [{"element": "F", "occu": 1}], "xyz": [4.714258, 4.594253, -1.658946], "properties": {}}, {"name": "F", "species": [{"element": "F", "occu": 1}], "xyz": [4.864117, 2.527089, -2.439232], "properties": {}}, {"name": "O", "species": [{"element": "O", "occu": 1}], "xyz": [3.090806, 1.167416, -0.003117], "properties": {}}, {"name": "C", "species": [{"element": "C", "occu": 1}], "xyz": [2.790893, -0.815294, 1.433467], "properties": {}}, {"name": "C", "species": [{"element": "C", "occu": 1}], "xyz": [2.614854, -0.125438, 0.091489], "properties": {}}, {"name": "C", "species": [{"element": "C", "occu": 1}], "xyz": [2.215487, -0.01, 2.605374], "properties": {}}, {"name": "C", "species": [{"element": "C", "occu": 1}], "xyz": [4.492528, 1.346117, 0.178937], "properties": {}}, {"name": "C", "species": [{"element": "C", "occu": 1}], "xyz": [4.783478, 2.813306, -0.096128], "properties": {}}, {"name": "C", "species": [{"element": "C", "occu": 1}], "xyz": [2.390424, -0.74336, 3.939678], "properties": {}}, {"name": "C", "species": [{"element": "C", "occu": 1}], "xyz": [4.299361, 3.311721, -1.469762], "properties": {}}, {"name": "H", "species": [{"element": "H", "occu": 1}], "xyz": [2.300521, -1.791432, 1.349724], "properties": {}}, {"name": "H", "species": [{"element": "H", "occu": 1}], "xyz": [3.859602, -1.012646, 1.580555], "properties": {}}, {"name": "H", "species": [{"element": "H", "occu": 1}], "xyz": [2.703705, 0.971724, 2.650618], "properties": {}}, {"name": "H", "species": [{"element": "H", "occu": 1}], "xyz": [1.152113, 0.18289, 2.419479], "properties": {}}, {"name": "H", "species": [{"element": "H", "occu": 1}], "xyz": [4.800922, 1.136281, 1.209811], "properties": {}}, {"name": "H", "species": [{"element": "H", "occu": 1}], "xyz": [5.06486, 0.729817, -0.520423], "properties": {}}, {"name": "H", "species": [{"element": "H", "occu": 1}], "xyz": [3.211966, 3.263189, -1.556826], "properties": {}}, {"name": "H", "species": [{"element": "H", "occu": 1}], "xyz": [3.450543, -0.925955, 4.157881], "properties": {}}, {"name": "H", "species": [{"element": "H", "occu": 1}], "xyz": [1.975585, -0.156891, 4.766987], "properties": {}}, {"name": "H", "species": [{"element": "H", "occu": 1}], "xyz": [1.880176, -1.714617, 3.928538], "properties": {}}]}, "smiles": "FC(F)(OCC(F)(F)C(F)F)CCC", "inchi": "InChI=1S/C7H10F6O/c1-2-3-7(12,13)14-4-6(10,11)5(8)9/h5H,2-4H2,1H3", "formula_alphabetical": "C7 F6 H10 O1", "chemsys": "C-F-H-O", "energy": -947.094912546, "esp": {"1": ["F", -0.21582], "2": ["F", -0.239906], "3": ["F", -0.19134], "4": ["F", -0.186705], "5": ["F", -0.212132], "6": ["F", -0.202155], "7": ["O", -0.368762], "8": ["C", -0.376578], "9": ["C", 0.617661], "10": ["C", 0.267584], "11": ["C", -0.19023], "12": ["C", 0.342922], "13": ["C", -0.2822], "14": ["C", 0.35423], "15": ["H", 0.134932], "16": ["H", 0.106078], "17": ["H", -0.010855], "18": ["H", -0.010976], "19": ["H", 0.182815], "20": ["H", 0.159634], "21": ["H", 0.115181], "22": ["H", 0.068113], "23": ["H", 0.064118], "24": ["H", 0.074391]}, "dipole_moment": {"X": -0.4289, "Y": -2.2789, "Z": 2.8462, "Tot": 3.6713}, "functional": "B3LYP", "basis": "6-31+G*", "phase": "gas", "tag": "lis", "state": "successful", "wall_time (s)": 15.039599847048521, "version": "0.0.1", "gauss_version": "ES64L-G16RevC.01", "last_updated": "2021-09-14 22:59:44.987000", "polarizability": 90.76, "fluorinated-solvent": "149629316", "run_ids": ["6141293a4e0040a4d745804b", "6141295b3cfb1636f3b3d42a"]}