{"_id": "6141149a2d0277b391ea5a16", "molecule": {"@module": "pymatgen.core.structure", "@class": "Molecule", "charge": 0, "spin_multiplicity": 1, "sites": [{"name": "F", "species": [{"element": "F", "occu": 1}], "xyz": [1.084326, -0.355677, -0.258209], "properties": {}}, {"name": "F", "species": [{"element": "F", "occu": 1}], "xyz": [3.037141, -0.978757, -1.026738], "properties": {}}, {"name": "F", "species": [{"element": "F", "occu": 1}], "xyz": [2.24005, 3.883828, -0.251508], "properties": {}}, {"name": "O", "species": [{"element": "O", "occu": 1}], "xyz": [2.834706, 1.057759, -0.07889], "properties": {}}, {"name": "C", "species": [{"element": "C", "occu": 1}], "xyz": [2.789332, -0.850032, 1.337401], "properties": {}}, {"name": "C", "species": [{"element": "C", "occu": 1}], "xyz": [2.117327, -0.139909, 2.519503], "properties": {}}, {"name": "C", "species": [{"element": "C", "occu": 1}], "xyz": [2.445214, -0.242057, -0.004571], "properties": {}}, {"name": "C", "species": [{"element": "C", "occu": 1}], "xyz": [2.485028, -0.793727, 3.856205], "properties": {}}, {"name": "C", "species": [{"element": "C", "occu": 1}], "xyz": [2.538777, 1.756274, -1.302661], "properties": {}}, {"name": "C", "species": [{"element": "C", "occu": 1}], "xyz": [3.039953, 3.171934, -1.15621], "properties": {}}, {"name": "H", "species": [{"element": "H", "occu": 1}], "xyz": [2.490466, -1.903353, 1.292745], "properties": {}}, {"name": "H", "species": [{"element": "H", "occu": 1}], "xyz": [3.880646, -0.818524, 1.434017], "properties": {}}, {"name": "H", "species": [{"element": "H", "occu": 1}], "xyz": [2.41527, 0.914979, 2.521452], "properties": {}}, {"name": "H", "species": [{"element": "H", "occu": 1}], "xyz": [1.02953, -0.160535, 2.380151], "properties": {}}, {"name": "H", "species": [{"element": "H", "occu": 1}], "xyz": [3.568615, -0.763079, 4.028634], "properties": {}}, {"name": "H", "species": [{"element": "H", "occu": 1}], "xyz": [1.999298, -0.278188, 4.692593], "properties": {}}, {"name": "H", "species": [{"element": "H", "occu": 1}], "xyz": [2.172494, -1.845527, 3.884525], "properties": {}}, {"name": "H", "species": [{"element": "H", "occu": 1}], "xyz": [3.052881, 1.268881, -2.140309], "properties": {}}, {"name": "H", "species": [{"element": "H", "occu": 1}], "xyz": [1.459288, 1.749747, -1.483782], "properties": {}}, {"name": "H", "species": [{"element": "H", "occu": 1}], "xyz": [4.066479, 3.190162, -0.775436], "properties": {}}, {"name": "H", "species": [{"element": "H", "occu": 1}], "xyz": [2.988209, 3.688431, -2.121672], "properties": {}}]}, "smiles": "FC(F)(OCCF)CCC", "inchi": "InChI=1S/C6H11F3O/c1-2-3-6(8,9)10-5-4-7/h2-5H2,1H3", "formula_alphabetical": "C6 F3 H11 O1", "chemsys": "C-F-H-O", "energy": -610.052404696, "esp": {"1": ["F", -0.236718], "2": ["F", -0.248488], "3": ["F", -0.286804], "4": ["O", -0.286604], "5": ["C", -0.308061], "6": ["C", 0.305057], "7": ["C", 0.522904], "8": ["C", -0.305108], "9": ["C", -0.063748], "10": ["C", 0.24145], "11": ["H", 0.115755], "12": ["H", 0.101668], "13": ["H", -0.035326], "14": ["H", -0.026694], "15": ["H", 0.071991], "16": ["H", 0.068019], "17": ["H", 0.067329], "18": ["H", 0.09221], "19": ["H", 0.124968], "20": ["H", 0.050312], "21": ["H", 0.035886]}, "dipole_moment": {"X": 1.4014, "Y": 0.0032, "Z": -0.4327, "Tot": 1.4667}, "functional": "B3LYP", "basis": "6-31+G*", "phase": "gas", "tag": "lis", "state": "successful", "wall_time (s)": 8.819073071004823, "version": "0.0.1", "gauss_version": "ES64L-G16RevC.01", "last_updated": "2021-09-14 21:31:06.440000", "polarizability": 77.88, "fluorinated-solvent": "59390530", "run_ids": ["61411441a017103ff4514e57", "6141147d3b3f5fd034bdf5d2"]}