{"_id": "614113d6be32284737640d5b", "molecule": {"@module": "pymatgen.core.structure", "@class": "Molecule", "charge": 0, "spin_multiplicity": 1, "sites": [{"name": "F", "species": [{"element": "F", "occu": 1}], "xyz": [4.726137, -1.220862, -0.47307], "properties": {}}, {"name": "F", "species": [{"element": "F", "occu": 1}], "xyz": [4.863808, 0.077921, 1.317405], "properties": {}}, {"name": "F", "species": [{"element": "F", "occu": 1}], "xyz": [-0.866079, -3.914058, 0.272212], "properties": {}}, {"name": "O", "species": [{"element": "O", "occu": 1}], "xyz": [2.322299, -2.315711, 0.634171], "properties": {}}, {"name": "C", "species": [{"element": "C", "occu": 1}], "xyz": [2.828845, -1.03415, 0.941407], "properties": {}}, {"name": "C", "species": [{"element": "C", "occu": 1}], "xyz": [0.903781, -2.37984, 0.630966], "properties": {}}, {"name": "C", "species": [{"element": "C", "occu": 1}], "xyz": [4.340342, -1.102841, 0.838121], "properties": {}}, {"name": "C", "species": [{"element": "C", "occu": 1}], "xyz": [0.533471, -3.811398, 0.275164], "properties": {}}, {"name": "H", "species": [{"element": "H", "occu": 1}], "xyz": [2.560419, -0.731792, 1.965633], "properties": {}}, {"name": "H", "species": [{"element": "H", "occu": 1}], "xyz": [2.463742, -0.270425, 0.23777], "properties": {}}, {"name": "H", "species": [{"element": "H", "occu": 1}], "xyz": [0.494769, -2.120106, 1.620036], "properties": {}}, {"name": "H", "species": [{"element": "H", "occu": 1}], "xyz": [0.481, -1.686195, -0.112014], "properties": {}}, {"name": "H", "species": [{"element": "H", "occu": 1}], "xyz": [4.782965, -1.93288, 1.396339], "properties": {}}, {"name": "H", "species": [{"element": "H", "occu": 1}], "xyz": [0.897374, -4.078221, -0.721874], "properties": {}}, {"name": "H", "species": [{"element": "H", "occu": 1}], "xyz": [0.924796, -4.517352, 1.014506], "properties": {}}]}, "smiles": "FC(F)COCCF", "inchi": "InChI=1S/C4H7F3O/c5-1-2-8-3-4(6)7/h4H,1-3H2", "formula_alphabetical": "C4 F3 H7 O1", "chemsys": "C-F-H-O", "energy": -531.395541516, "esp": {"1": ["F", -0.247378], "2": ["F", -0.282748], "3": ["F", -0.307434], "4": ["O", -0.471452], "5": ["C", -0.013482], "6": ["C", 0.206693], "7": ["C", 0.490124], "8": ["C", 0.185108], "9": ["H", 0.077969], "10": ["H", 0.104426], "11": ["H", 0.034977], "12": ["H", 0.037285], "13": ["H", 0.065407], "14": ["H", 0.062601], "15": ["H", 0.057904]}, "dipole_moment": {"X": -0.3894, "Y": -0.096, "Z": 1.3178, "Tot": 1.3775}, "functional": "B3LYP", "basis": "6-31+G*", "phase": "gas", "tag": "lis", "state": "successful", "wall_time (s)": 5.880454774945974, "version": "0.0.1", "gauss_version": "ES64L-G16RevC.01", "last_updated": "2021-09-14 21:27:50.618000", "polarizability": 55.07, "fluorinated-solvent": "90112406", "run_ids": ["61411328038d110cd4dcbce5", "6141138b576fabc44b61bb81"]}