{"_id": "61411dc3e555a1044c7e5f66", "molecule": {"@module": "pymatgen.core.structure", "@class": "Molecule", "charge": 0, "spin_multiplicity": 1, "sites": [{"name": "F", "species": [{"element": "F", "occu": 1}], "xyz": [1.159062, 0.193402, 0.201826], "properties": {}}, {"name": "F", "species": [{"element": "F", "occu": 1}], "xyz": [3.09913, 0.394443, 1.246089], "properties": {}}, {"name": "F", "species": [{"element": "F", "occu": 1}], "xyz": [2.278181, -4.434, -3.828609], "properties": {}}, {"name": "O", "species": [{"element": "O", "occu": 1}], "xyz": [2.427694, -1.61066, -1.624785], "properties": {}}, {"name": "C", "species": [{"element": "C", "occu": 1}], "xyz": [2.526668, 0.126516, 0.008964], "properties": {}}, {"name": "C", "species": [{"element": "C", "occu": 1}], "xyz": [2.904306, -1.310876, -0.329047], "properties": {}}, {"name": "C", "species": [{"element": "C", "occu": 1}], "xyz": [2.647442, -2.958842, -2.009772], "properties": {}}, {"name": "C", "species": [{"element": "C", "occu": 1}], "xyz": [2.94164, 1.185595, -0.982664], "properties": {}}, {"name": "C", "species": [{"element": "C", "occu": 1}], "xyz": [2.067258, -3.112089, -3.407205], "properties": {}}, {"name": "H", "species": [{"element": "H", "occu": 1}], "xyz": [3.999769, -1.406564, -0.277046], "properties": {}}, {"name": "H", "species": [{"element": "H", "occu": 1}], "xyz": [2.454388, -1.968321, 0.429341], "properties": {}}, {"name": "H", "species": [{"element": "H", "occu": 1}], "xyz": [3.72298, -3.19631, -2.021031], "properties": {}}, {"name": "H", "species": [{"element": "H", "occu": 1}], "xyz": [2.147245, -3.652685, -1.316624], "properties": {}}, {"name": "H", "species": [{"element": "H", "occu": 1}], "xyz": [2.47481, 0.981773, -1.948941], "properties": {}}, {"name": "H", "species": [{"element": "H", "occu": 1}], "xyz": [2.620763, 2.163874, -0.614642], "properties": {}}, {"name": "H", "species": [{"element": "H", "occu": 1}], "xyz": [4.029363, 1.180325, -1.099484], "properties": {}}, {"name": "H", "species": [{"element": "H", "occu": 1}], "xyz": [0.989702, -2.920631, -3.411455], "properties": {}}, {"name": "H", "species": [{"element": "H", "occu": 1}], "xyz": [2.565631, -2.44534, -4.118144], "properties": {}}]}, "smiles": "FC(F)(COCCF)C", "inchi": "InChI=1S/C5H9F3O/c1-5(7,8)4-9-3-2-6/h2-4H2,1H3", "formula_alphabetical": "C5 F3 H9 O1", "chemsys": "C-F-H-O", "energy": -570.720743688, "esp": {"1": ["F", -0.274971], "2": ["F", -0.317761], "3": ["F", -0.308027], "4": ["O", -0.40928], "5": ["C", 0.659154], "6": ["C", -0.011858], "7": ["C", 0.10184], "8": ["C", -0.409199], "9": ["C", 0.20927], "10": ["H", 0.069951], "11": ["H", 0.080174], "12": ["H", 0.055401], "13": ["H", 0.065178], "14": ["H", 0.110838], "15": ["H", 0.139271], "16": ["H", 0.127615], "17": ["H", 0.056971], "18": ["H", 0.055432]}, "dipole_moment": {"X": 1.4444, "Y": 0.4786, "Z": -0.789, "Tot": 1.714}, "functional": "B3LYP", "basis": "6-31+G*", "phase": "gas", "tag": "lis", "state": "successful", "wall_time (s)": 7.303102903999388, "version": "0.0.1", "gauss_version": "ES64L-G16RevC.01", "last_updated": "2021-09-14 22:10:11.550000", "polarizability": 66.36, "fluorinated-solvent": "59650563", "run_ids": ["61411dae1e5f2415034125e8", "61411dbe996037b9e96dae0c"]}