{"_id": "61411be48554fda88a298760", "molecule": {"@module": "pymatgen.core.structure", "@class": "Molecule", "charge": 0, "spin_multiplicity": 1, "sites": [{"name": "F", "species": [{"element": "F", "occu": 1}], "xyz": [1.104611, -0.075877, 0.238716], "properties": {}}, {"name": "F", "species": [{"element": "F", "occu": 1}], "xyz": [2.918452, -1.309078, -0.045011], "properties": {}}, {"name": "F", "species": [{"element": "F", "occu": 1}], "xyz": [2.901648, -0.033524, 2.337747], "properties": {}}, {"name": "F", "species": [{"element": "F", "occu": 1}], "xyz": [4.434771, 0.822484, 0.98847], "properties": {}}, {"name": "F", "species": [{"element": "F", "occu": 1}], "xyz": [3.761173, 2.735154, -2.797296], "properties": {}}, {"name": "F", "species": [{"element": "F", "occu": 1}], "xyz": [1.736367, 2.17245, -3.401529], "properties": {}}, {"name": "O", "species": [{"element": "O", "occu": 1}], "xyz": [2.319875, 1.989937, -1.233712], "properties": {}}, {"name": "C", "species": [{"element": "C", "occu": 1}], "xyz": [2.4552, -0.024042, 0.007773], "properties": {}}, {"name": "C", "species": [{"element": "C", "occu": 1}], "xyz": [2.73404, 0.621234, -1.339421], "properties": {}}, {"name": "C", "species": [{"element": "C", "occu": 1}], "xyz": [3.088285, 0.702397, 1.208579], "properties": {}}, {"name": "C", "species": [{"element": "C", "occu": 1}], "xyz": [2.446958, 2.74928, -2.364439], "properties": {}}, {"name": "C", "species": [{"element": "C", "occu": 1}], "xyz": [1.981674, 4.160785, -2.121549], "properties": {}}, {"name": "H", "species": [{"element": "H", "occu": 1}], "xyz": [3.802909, 0.554629, -1.557706], "properties": {}}, {"name": "H", "species": [{"element": "H", "occu": 1}], "xyz": [2.155161, 0.091776, -2.10147], "properties": {}}, {"name": "H", "species": [{"element": "H", "occu": 1}], "xyz": [2.659386, 1.696876, 1.349401], "properties": {}}, {"name": "H", "species": [{"element": "H", "occu": 1}], "xyz": [0.932378, 4.14872, -1.818082], "properties": {}}, {"name": "H", "species": [{"element": "H", "occu": 1}], "xyz": [2.58791, 4.611799, -1.332564], "properties": {}}, {"name": "H", "species": [{"element": "H", "occu": 1}], "xyz": [2.092802, 4.734322, -3.044287], "properties": {}}]}, "smiles": "FC(F)(COC(F)(F)C)C(F)F", "inchi": "InChI=1S/C5H6F6O/c1-4(8,9)12-2-5(10,11)3(6)7/h3H,2H2,1H3", "formula_alphabetical": "C5 F6 H6 O1", "chemsys": "C-F-H-O", "energy": -868.471457728, "esp": {"1": ["F", -0.205624], "2": ["F", -0.199033], "3": ["F", -0.20699], "4": ["F", -0.206715], "5": ["F", -0.259022], "6": ["F", -0.260551], "7": ["O", -0.374325], "8": ["C", 0.386475], "9": ["C", -0.149076], "10": ["C", 0.34755], "11": ["C", 0.738445], "12": ["C", -0.550174], "13": ["H", 0.140059], "14": ["H", 0.178996], "15": ["H", 0.094313], "16": ["H", 0.175259], "17": ["H", 0.172469], "18": ["H", 0.177942]}, "dipole_moment": {"X": -0.6691, "Y": 2.8503, "Z": -0.787, "Tot": 3.0317}, "functional": "B3LYP", "basis": "6-31+G*", "phase": "gas", "tag": "lis", "state": "successful", "wall_time (s)": 9.76593633601442, "version": "0.0.1", "gauss_version": "ES64L-G16RevC.01", "last_updated": "2021-09-14 22:02:12.348000", "polarizability": 68.1, "fluorinated-solvent": "58264594", "run_ids": ["61411bce96da8993ba31080c", "61411be04ec465224a950f1f"]}