{"_id": "61412ea4d1b9c6d2152733f2", "molecule": {"@module": "pymatgen.core.structure", "@class": "Molecule", "charge": 0, "spin_multiplicity": 1, "sites": [{"name": "F", "species": [{"element": "F", "occu": 1}], "xyz": [1.103134, -0.042424, 0.193038], "properties": {}}, {"name": "F", "species": [{"element": "F", "occu": 1}], "xyz": [2.970199, -1.225681, 0.163509], "properties": {}}, {"name": "F", "species": [{"element": "F", "occu": 1}], "xyz": [2.818217, 0.404622, 2.318535], "properties": {}}, {"name": "F", "species": [{"element": "F", "occu": 1}], "xyz": [4.368772, 1.098698, 0.897624], "properties": {}}, {"name": "F", "species": [{"element": "F", "occu": 1}], "xyz": [0.782719, 3.91817, -2.559769], "properties": {}}, {"name": "F", "species": [{"element": "F", "occu": 1}], "xyz": [2.737267, 4.567525, -1.844283], "properties": {}}, {"name": "F", "species": [{"element": "F", "occu": 1}], "xyz": [2.363628, 4.395729, -3.992213], "properties": {}}, {"name": "O", "species": [{"element": "O", "occu": 1}], "xyz": [2.335902, 1.827568, -1.535746], "properties": {}}, {"name": "C", "species": [{"element": "C", "occu": 1}], "xyz": [2.457724, 0.032522, 0.003937], "properties": {}}, {"name": "C", "species": [{"element": "C", "occu": 1}], "xyz": [2.76609, 0.4848, -1.415992], "properties": {}}, {"name": "C", "species": [{"element": "C", "occu": 1}], "xyz": [2.596245, 2.389887, -2.800057], "properties": {}}, {"name": "C", "species": [{"element": "C", "occu": 1}], "xyz": [3.018626, 0.963322, 1.09441], "properties": {}}, {"name": "C", "species": [{"element": "C", "occu": 1}], "xyz": [2.109338, 3.830803, -2.785063], "properties": {}}, {"name": "H", "species": [{"element": "H", "occu": 1}], "xyz": [3.847653, 0.391751, -1.584161], "properties": {}}, {"name": "H", "species": [{"element": "H", "occu": 1}], "xyz": [2.228608, -0.180226, -2.107132], "properties": {}}, {"name": "H", "species": [{"element": "H", "occu": 1}], "xyz": [3.6714, 2.401132, -3.029608], "properties": {}}, {"name": "H", "species": [{"element": "H", "occu": 1}], "xyz": [2.060058, 1.861174, -3.600996], "properties": {}}, {"name": "H", "species": [{"element": "H", "occu": 1}], "xyz": [2.551901, 1.949897, 1.061407], "properties": {}}]}, "smiles": "FC(F)(COCC(F)(F)F)C(F)F", "inchi": "InChI=1S/C5H5F7O/c6-3(7)4(8,9)1-13-2-5(10,11)12/h3H,1-2H2", "formula_alphabetical": "C5 F7 H5 O1", "chemsys": "C-F-H-O", "energy": -967.698553006, "esp": {"1": ["F", -0.196306], "2": ["F", -0.196611], "3": ["F", -0.212444], "4": ["F", -0.220104], "5": ["F", -0.197578], "6": ["F", -0.199044], "7": ["F", -0.230372], "8": ["O", -0.277973], "9": ["C", 0.325551], "10": ["C", -0.093432], "11": ["C", -0.185117], "12": ["C", 0.404028], "13": ["C", 0.647329], "14": ["H", 0.115789], "15": ["H", 0.151687], "16": ["H", 0.142896], "17": ["H", 0.144454], "18": ["H", 0.077247]}, "dipole_moment": {"X": 0.8974, "Y": -0.489, "Z": -2.963, "Tot": 3.1343}, "functional": "B3LYP", "basis": "6-31+G*", "phase": "gas", "tag": "lis", "state": "successful", "wall_time (s)": 9.593796952045523, "version": "0.0.1", "gauss_version": "ES64L-G16RevC.01", "last_updated": "2021-09-14 23:22:12.547000", "polarizability": 69.45, "fluorinated-solvent": "57139660", "run_ids": ["61412e8f310c9a4e5ab1e65e", "61412e9f89b1c558788729cc"]}