{"_id": "61412022cc2d55709fa2df16", "molecule": {"@module": "pymatgen.core.structure", "@class": "Molecule", "charge": 0, "spin_multiplicity": 1, "sites": [{"name": "F", "species": [{"element": "F", "occu": 1}], "xyz": [2.817255, -1.734044, 2.917612], "properties": {}}, {"name": "F", "species": [{"element": "F", "occu": 1}], "xyz": [1.155306, -1.720393, 1.498957], "properties": {}}, {"name": "F", "species": [{"element": "F", "occu": 1}], "xyz": [0.653728, 3.7632, 0.331434], "properties": {}}, {"name": "F", "species": [{"element": "F", "occu": 1}], "xyz": [1.392252, 3.228119, -1.653681], "properties": {}}, {"name": "F", "species": [{"element": "F", "occu": 1}], "xyz": [0.517461, 1.700056, -0.366214], "properties": {}}, {"name": "F", "species": [{"element": "F", "occu": 1}], "xyz": [5.049153, -1.043971, -0.112582], "properties": {}}, {"name": "F", "species": [{"element": "F", "occu": 1}], "xyz": [5.36695, -2.150723, 1.73935], "properties": {}}, {"name": "F", "species": [{"element": "F", "occu": 1}], "xyz": [5.283623, -3.209835, -0.167589], "properties": {}}, {"name": "O", "species": [{"element": "O", "occu": 1}], "xyz": [2.776963, -0.16118, 1.304391], "properties": {}}, {"name": "C", "species": [{"element": "C", "occu": 1}], "xyz": [2.711869, 2.193002, 1.701318], "properties": {}}, {"name": "C", "species": [{"element": "C", "occu": 1}], "xyz": [2.085517, 0.856585, 2.076963], "properties": {}}, {"name": "C", "species": [{"element": "C", "occu": 1}], "xyz": [2.690657, 2.528588, 0.201372], "properties": {}}, {"name": "C", "species": [{"element": "C", "occu": 1}], "xyz": [2.511, -1.448744, 1.599831], "properties": {}}, {"name": "C", "species": [{"element": "C", "occu": 1}], "xyz": [3.241848, -2.404352, 0.666129], "properties": {}}, {"name": "C", "species": [{"element": "C", "occu": 1}], "xyz": [1.315717, 2.801633, -0.367707], "properties": {}}, {"name": "C", "species": [{"element": "C", "occu": 1}], "xyz": [4.74057, -2.186461, 0.543216], "properties": {}}, {"name": "H", "species": [{"element": "H", "occu": 1}], "xyz": [2.203033, 2.980217, 2.270087], "properties": {}}, {"name": "H", "species": [{"element": "H", "occu": 1}], "xyz": [3.759152, 2.187379, 2.024094], "properties": {}}, {"name": "H", "species": [{"element": "H", "occu": 1}], "xyz": [1.020733, 0.811535, 1.836641], "properties": {}}, {"name": "H", "species": [{"element": "H", "occu": 1}], "xyz": [2.226458, 0.654771, 3.143044], "properties": {}}, {"name": "H", "species": [{"element": "H", "occu": 1}], "xyz": [3.281909, 3.431434, 0.017822], "properties": {}}, {"name": "H", "species": [{"element": "H", "occu": 1}], "xyz": [3.131252, 1.716332, -0.383901], "properties": {}}, {"name": "H", "species": [{"element": "H", "occu": 1}], "xyz": [3.07469, -3.420778, 1.028565], "properties": {}}, {"name": "H", "species": [{"element": "H", "occu": 1}], "xyz": [2.808487, -2.310506, -0.33198], "properties": {}}]}, "smiles": "FC(F)(OCCCC(F)(F)F)CC(F)(F)F", "inchi": "InChI=1S/C7H8F8O/c8-5(9,10)2-1-3-16-7(14,15)4-6(11,12)13/h1-4H2", "formula_alphabetical": "C7 F8 H8 O1", "chemsys": "C-F-H-O", "energy": -1145.61634963, "esp": {"1": ["F", -0.226943], "2": ["F", -0.23494], "3": ["F", -0.208355], "4": ["F", -0.223444], "5": ["F", -0.199911], "6": ["F", -0.223615], "7": ["F", -0.209887], "8": ["F", -0.233209], "9": ["O", -0.287465], "10": ["C", -0.049858], "11": ["C", 0.021529], "12": ["C", -0.196436], "13": ["C", 0.581039], "14": ["C", -0.517076], "15": ["C", 0.575783], "16": ["C", 0.706343], "17": ["H", 0.055191], "18": ["H", 0.073983], "19": ["H", 0.08938], "20": ["H", 0.084421], "21": ["H", 0.105149], "22": ["H", 0.10528], "23": ["H", 0.211444], "24": ["H", 0.201598]}, "dipole_moment": {"X": 0.4507, "Y": 0.5796, "Z": 0.8322, "Tot": 1.1098}, "functional": "B3LYP", "basis": "6-31+G*", "phase": "gas", "tag": "lis", "state": "successful", "wall_time (s)": 17.08225711598061, "version": "0.0.1", "gauss_version": "ES64L-G16RevC.01", "last_updated": "2021-09-14 22:20:18.011000", "polarizability": 91.74, "fluorinated-solvent": "88558628", "run_ids": ["61412000296bcdc4d7bfdbbe", "614120195779f9ab7c7fe5f7"]}