{"_id": "613a5402e03a18b7666dd19c", "molecule": {"@module": "pymatgen.core.structure", "@class": "Molecule", "charge": 0, "spin_multiplicity": 1, "sites": [{"name": "F", "species": [{"element": "F", "occu": 1}], "xyz": [4.725841, -0.679199, -0.837205], "properties": {}}, {"name": "F", "species": [{"element": "F", "occu": 1}], "xyz": [4.741055, 0.915863, -2.375118], "properties": {}}, {"name": "O", "species": [{"element": "O", "occu": 1}], "xyz": [2.25949, 1.848673, -1.264752], "properties": {}}, {"name": "C", "species": [{"element": "C", "occu": 1}], "xyz": [2.731695, 0.524715, -1.16923], "properties": {}}, {"name": "C", "species": [{"element": "C", "occu": 1}], "xyz": [0.83982, 1.939836, -1.370472], "properties": {}}, {"name": "C", "species": [{"element": "C", "occu": 1}], "xyz": [4.246673, 0.578206, -1.139987], "properties": {}}, {"name": "C", "species": [{"element": "C", "occu": 1}], "xyz": [0.463366, 3.408648, -1.459046], "properties": {}}, {"name": "H", "species": [{"element": "H", "occu": 1}], "xyz": [2.420984, -0.088198, -2.030284], "properties": {}}, {"name": "H", "species": [{"element": "H", "occu": 1}], "xyz": [2.382689, 0.036334, -0.244965], "properties": {}}, {"name": "H", "species": [{"element": "H", "occu": 1}], "xyz": [0.501388, 1.392818, -2.265915], "properties": {}}, {"name": "H", "species": [{"element": "H", "occu": 1}], "xyz": [0.371869, 1.465962, -0.491065], "properties": {}}, {"name": "H", "species": [{"element": "H", "occu": 1}], "xyz": [4.647655, 1.288121, -0.410935], "properties": {}}, {"name": "H", "species": [{"element": "H", "occu": 1}], "xyz": [0.9315, 3.871097, -2.334396], "properties": {}}, {"name": "H", "species": [{"element": "H", "occu": 1}], "xyz": [-0.62413, 3.516192, -1.545817], "properties": {}}, {"name": "H", "species": [{"element": "H", "occu": 1}], "xyz": [0.796897, 3.945292, -0.564413], "properties": {}}]}, "smiles": "FC(F)COCC", "inchi": "InChI=1S/C4H8F2O/c1-2-7-3-4(5)6/h4H,2-3H2,1H3", "formula_alphabetical": "C4 F2 H8 O1", "chemsys": "C-F-H-O", "energy": -432.160680827, "esp": {"1": ["F", -0.297654], "2": ["F", -0.265908], "3": ["O", -0.445914], "4": ["C", -0.051601], "5": ["C", 0.407059], "6": ["C", 0.551196], "7": ["C", -0.341812], "8": ["H", 0.098184], "9": ["H", 0.071186], "10": ["H", -0.020255], "11": ["H", -0.02658], "12": ["H", 0.04406], "13": ["H", 0.103708], "14": ["H", 0.075015], "15": ["H", 0.099315]}, "dipole_moment": {"X": -2.7119, "Y": 0.439, "Z": 1.097, "Tot": 2.9581}, "functional": "B3LYP", "basis": "6-31+G*", "phase": "gas", "tag": "lis", "state": "successful", "wall_time (s)": 8.812115569016896, "version": "0.0.1", "gauss_version": "ES64L-G16RevC.01", "last_updated": "2021-09-09 18:35:46.358000", "polarizability": 55.0, "fluorinated-solvent": "21616969", "run_ids": ["613a4acb07b07f2932561977", "613a53fa12eca9bed8471ce2"]}