{"_id": "61412285c05d6c32cf5ea753", "molecule": {"@module": "pymatgen.core.structure", "@class": "Molecule", "charge": 0, "spin_multiplicity": 1, "sites": [{"name": "F", "species": [{"element": "F", "occu": 1}], "xyz": [5.150734, -0.566814, -1.477589], "properties": {}}, {"name": "F", "species": [{"element": "F", "occu": 1}], "xyz": [3.929562, 0.590422, -2.867019], "properties": {}}, {"name": "F", "species": [{"element": "F", "occu": 1}], "xyz": [5.577097, 2.058996, -1.230026], "properties": {}}, {"name": "F", "species": [{"element": "F", "occu": 1}], "xyz": [3.427689, 2.497844, -1.023252], "properties": {}}, {"name": "F", "species": [{"element": "F", "occu": 1}], "xyz": [4.973647, 2.595424, 1.292776], "properties": {}}, {"name": "F", "species": [{"element": "F", "occu": 1}], "xyz": [3.321108, 1.178542, 1.33642], "properties": {}}, {"name": "F", "species": [{"element": "F", "occu": 1}], "xyz": [5.368441, 0.457323, 1.106251], "properties": {}}, {"name": "O", "species": [{"element": "O", "occu": 1}], "xyz": [2.956925, -0.279667, -1.026569], "properties": {}}, {"name": "C", "species": [{"element": "C", "occu": 1}], "xyz": [2.501626, -1.563566, -1.605459], "properties": {}}, {"name": "C", "species": [{"element": "C", "occu": 1}], "xyz": [2.761652, -2.661704, -0.571899], "properties": {}}, {"name": "C", "species": [{"element": "C", "occu": 1}], "xyz": [4.059172, 0.269066, -1.535417], "properties": {}}, {"name": "C", "species": [{"element": "C", "occu": 1}], "xyz": [4.395145, 1.581927, -0.768641], "properties": {}}, {"name": "C", "species": [{"element": "C", "occu": 1}], "xyz": [1.046054, -1.361301, -1.997641], "properties": {}}, {"name": "C", "species": [{"element": "C", "occu": 1}], "xyz": [4.513157, 1.441635, 0.78014], "properties": {}}, {"name": "C", "species": [{"element": "C", "occu": 1}], "xyz": [2.033565, -2.471534, 0.764206], "properties": {}}, {"name": "H", "species": [{"element": "H", "occu": 1}], "xyz": [3.105274, -1.754149, -2.49814], "properties": {}}, {"name": "H", "species": [{"element": "H", "occu": 1}], "xyz": [2.469913, -3.61671, -1.030806], "properties": {}}, {"name": "H", "species": [{"element": "H", "occu": 1}], "xyz": [3.843532, -2.711642, -0.401033], "properties": {}}, {"name": "H", "species": [{"element": "H", "occu": 1}], "xyz": [0.96363, -0.598437, -2.7777], "properties": {}}, {"name": "H", "species": [{"element": "H", "occu": 1}], "xyz": [0.629694, -2.300667, -2.379472], "properties": {}}, {"name": "H", "species": [{"element": "H", "occu": 1}], "xyz": [0.450902, -1.039956, -1.137772], "properties": {}}, {"name": "H", "species": [{"element": "H", "occu": 1}], "xyz": [0.945284, -2.527847, 0.648913], "properties": {}}, {"name": "H", "species": [{"element": "H", "occu": 1}], "xyz": [2.331171, -3.252857, 1.472181], "properties": {}}, {"name": "H", "species": [{"element": "H", "occu": 1}], "xyz": [2.279095, -1.50133, 1.208687], "properties": {}}]}, "smiles": "FC(F)(O[C@@H](CC)C)C(F)(F)C(F)(F)F", "inchi": "InChI=1S/C7H9F7O/c1-3-4(2)15-7(13,14)5(8,9)6(10,11)12/h4H,3H2,1-2H3/t4-/m1/s1", "formula_alphabetical": "C7 F7 H9 O1", "chemsys": "C-F-H-O", "energy": -1046.3361631, "esp": {"1": ["F", -0.201383], "2": ["F", -0.167143], "3": ["F", -0.126719], "4": ["F", -0.126656], "5": ["F", -0.173775], "6": ["F", -0.170764], "7": ["F", -0.16842], "8": ["O", -0.371778], "9": ["C", 0.390488], "10": ["C", -0.030762], "11": ["C", 0.435008], "12": ["C", 0.141413], "13": ["C", -0.416862], "14": ["C", 0.569309], "15": ["C", -0.092948], "16": ["H", 0.012956], "17": ["H", 0.011177], "18": ["H", 0.032023], "19": ["H", 0.118349], "20": ["H", 0.111818], "21": ["H", 0.12818], "22": ["H", 0.028291], "23": ["H", 0.035985], "24": ["H", 0.032212]}, "dipole_moment": {"X": -2.0277, "Y": -2.8827, "Z": -0.3111, "Tot": 3.5382}, "functional": "B3LYP", "basis": "6-31+G*", "phase": "gas", "tag": "lis", "state": "successful", "wall_time (s)": 16.028752368991263, "version": "0.0.1", "gauss_version": "ES64L-G16RevC.01", "last_updated": "2021-09-14 22:30:29.400000", "polarizability": 92.38, "fluorinated-solvent": "59075025", "run_ids": ["614122693d13a705f212b2b8", "61412280a2abdaded08d681e"]}