{"_id": "61412e182ff02ff8260a5ccc", "molecule": {"@module": "pymatgen.core.structure", "@class": "Molecule", "charge": 0, "spin_multiplicity": 1, "sites": [{"name": "F", "species": [{"element": "F", "occu": 1}], "xyz": [1.858818, 2.492387, -3.085545], "properties": {}}, {"name": "F", "species": [{"element": "F", "occu": 1}], "xyz": [0.451033, 1.930452, -1.511905], "properties": {}}, {"name": "F", "species": [{"element": "F", "occu": 1}], "xyz": [2.125022, 2.726362, 0.450508], "properties": {}}, {"name": "F", "species": [{"element": "F", "occu": 1}], "xyz": [1.068348, -3.021855, -2.573062], "properties": {}}, {"name": "F", "species": [{"element": "F", "occu": 1}], "xyz": [2.35344, -2.436018, -4.276193], "properties": {}}, {"name": "F", "species": [{"element": "F", "occu": 1}], "xyz": [4.30188, 4.305386, -0.210318], "properties": {}}, {"name": "F", "species": [{"element": "F", "occu": 1}], "xyz": [4.615374, 2.178777, -0.551846], "properties": {}}, {"name": "F", "species": [{"element": "F", "occu": 1}], "xyz": [4.282852, 3.517027, -2.246126], "properties": {}}, {"name": "O", "species": [{"element": "O", "occu": 1}], "xyz": [2.410347, 0.823309, -1.667035], "properties": {}}, {"name": "C", "species": [{"element": "C", "occu": 1}], "xyz": [2.80024, -1.459387, -2.166183], "properties": {}}, {"name": "C", "species": [{"element": "C", "occu": 1}], "xyz": [1.882224, -0.279906, -2.453942], "properties": {}}, {"name": "C", "species": [{"element": "C", "occu": 1}], "xyz": [1.797171, 2.009277, -1.793659], "properties": {}}, {"name": "C", "species": [{"element": "C", "occu": 1}], "xyz": [2.404556, 3.068547, -0.856208], "properties": {}}, {"name": "C", "species": [{"element": "C", "occu": 1}], "xyz": [2.38201, -2.716063, -2.913679], "properties": {}}, {"name": "C", "species": [{"element": "C", "occu": 1}], "xyz": [3.928193, 3.25222, -0.971924], "properties": {}}, {"name": "C", "species": [{"element": "C", "occu": 1}], "xyz": [3.239937, -3.939542, -2.68723], "properties": {}}, {"name": "H", "species": [{"element": "H", "occu": 1}], "xyz": [3.826169, -1.207898, -2.454962], "properties": {}}, {"name": "H", "species": [{"element": "H", "occu": 1}], "xyz": [2.79688, -1.675632, -1.092647], "properties": {}}, {"name": "H", "species": [{"element": "H", "occu": 1}], "xyz": [0.855362, -0.48252, -2.141117], "properties": {}}, {"name": "H", "species": [{"element": "H", "occu": 1}], "xyz": [1.897812, -0.00687, -3.511895], "properties": {}}, {"name": "H", "species": [{"element": "H", "occu": 1}], "xyz": [1.930294, 4.027245, -1.084468], "properties": {}}, {"name": "H", "species": [{"element": "H", "occu": 1}], "xyz": [4.268182, -3.738996, -3.001481], "properties": {}}, {"name": "H", "species": [{"element": "H", "occu": 1}], "xyz": [3.232279, -4.211091, -1.627761], "properties": {}}, {"name": "H", "species": [{"element": "H", "occu": 1}], "xyz": [2.838989, -4.769771, -3.274882], "properties": {}}]}, "smiles": "FC(F)(OCCC(F)(F)C)[C@@H](F)C(F)(F)F", "inchi": "InChI=1S/C7H8F8O/c1-5(9,10)2-3-16-7(14,15)4(8)6(11,12)13/h4H,2-3H2,1H3/t4-/m0/s1", "formula_alphabetical": "C7 F8 H8 O1", "chemsys": "C-F-H-O", "energy": -1145.59334402, "esp": {"1": ["F", -0.219684], "2": ["F", -0.196491], "3": ["F", -0.150422], "4": ["F", -0.286921], "5": ["F", -0.28609], "6": ["F", -0.185556], "7": ["F", -0.178017], "8": ["F", -0.18377], "9": ["O", -0.285534], "10": ["C", -0.233595], "11": ["C", 0.127543], "12": ["C", 0.481753], "13": ["C", -0.12769], "14": ["C", 0.64957], "15": ["C", 0.571887], "16": ["C", -0.550569], "17": ["H", 0.102801], "18": ["H", 0.102538], "19": ["H", 0.078925], "20": ["H", 0.080357], "21": ["H", 0.19581], "22": ["H", 0.155056], "23": ["H", 0.15561], "24": ["H", 0.182491]}, "dipole_moment": {"X": 1.0979, "Y": -1.6757, "Z": 0.1123, "Tot": 2.0064}, "functional": "B3LYP", "basis": "6-31+G*", "phase": "gas", "tag": "lis", "state": "successful", "wall_time (s)": 15.428644170984626, "version": "0.0.1", "gauss_version": "ES64L-G16RevC.01", "last_updated": "2021-09-14 23:19:52.261000", "polarizability": 92.96, "fluorinated-solvent": "58537762", "run_ids": ["61412dfc81bb501e0d0ee2cf", "61412e112133aaf7ff20fef7"]}