{"_id": "61410be6f83be0c337443c65", "molecule": {"@module": "pymatgen.core.structure", "@class": "Molecule", "charge": 0, "spin_multiplicity": 1, "sites": [{"name": "F", "species": [{"element": "F", "occu": 1}], "xyz": [1.934849, -1.668589, 3.888962], "properties": {}}, {"name": "F", "species": [{"element": "F", "occu": 1}], "xyz": [0.102436, -1.610529, 2.697883], "properties": {}}, {"name": "F", "species": [{"element": "F", "occu": 1}], "xyz": [1.323151, -4.068606, 2.743413], "properties": {}}, {"name": "F", "species": [{"element": "F", "occu": 1}], "xyz": [1.316572, -3.187793, 0.747066], "properties": {}}, {"name": "F", "species": [{"element": "F", "occu": 1}], "xyz": [3.160223, -3.228927, 1.916351], "properties": {}}, {"name": "O", "species": [{"element": "O", "occu": 1}], "xyz": [1.994082, -0.731569, 1.836278], "properties": {}}, {"name": "O", "species": [{"element": "O", "occu": 1}], "xyz": [3.986553, 1.471992, 1.788561], "properties": {}}, {"name": "C", "species": [{"element": "C", "occu": 1}], "xyz": [1.735577, 0.645701, 2.237649], "properties": {}}, {"name": "C", "species": [{"element": "C", "occu": 1}], "xyz": [2.628339, 1.544253, 1.399263], "properties": {}}, {"name": "C", "species": [{"element": "C", "occu": 1}], "xyz": [1.468821, -1.697592, 2.599978], "properties": {}}, {"name": "C", "species": [{"element": "C", "occu": 1}], "xyz": [4.809062, 0.557114, 1.046525], "properties": {}}, {"name": "C", "species": [{"element": "C", "occu": 1}], "xyz": [1.825771, -3.080729, 1.986189], "properties": {}}, {"name": "C", "species": [{"element": "C", "occu": 1}], "xyz": [5.303878, 1.163626, -0.263836], "properties": {}}, {"name": "H", "species": [{"element": "H", "occu": 1}], "xyz": [0.677128, 0.865576, 2.058338], "properties": {}}, {"name": "H", "species": [{"element": "H", "occu": 1}], "xyz": [1.971751, 0.759241, 3.299239], "properties": {}}, {"name": "H", "species": [{"element": "H", "occu": 1}], "xyz": [2.492354, 1.308845, 0.333848], "properties": {}}, {"name": "H", "species": [{"element": "H", "occu": 1}], "xyz": [2.300878, 2.579321, 1.558883], "properties": {}}, {"name": "H", "species": [{"element": "H", "occu": 1}], "xyz": [5.652834, 0.339787, 1.70917], "properties": {}}, {"name": "H", "species": [{"element": "H", "occu": 1}], "xyz": [4.269458, -0.382031, 0.872777], "properties": {}}, {"name": "H", "species": [{"element": "H", "occu": 1}], "xyz": [5.853322, 2.091637, -0.071522], "properties": {}}, {"name": "H", "species": [{"element": "H", "occu": 1}], "xyz": [5.972302, 0.460798, -0.77692], "properties": {}}, {"name": "H", "species": [{"element": "H", "occu": 1}], "xyz": [4.473612, 1.390855, -0.943145], "properties": {}}]}, "smiles": "FC(F)(OCCOCC)C(F)(F)F", "inchi": "InChI=1S/C6H9F5O2/c1-2-12-3-4-13-6(10,11)5(7,8)9/h2-4H2,1H3", "formula_alphabetical": "C6 F5 H9 O2", "chemsys": "C-F-H-O", "energy": -883.74428593, "esp": {"1": ["F", -0.160995], "2": ["F", -0.160255], "3": ["F", -0.170579], "4": ["F", -0.180246], "5": ["F", -0.17374], "6": ["O", -0.218926], "7": ["O", -0.495845], "8": ["C", 0.020004], "9": ["C", 0.106316], "10": ["C", 0.255184], "11": ["C", 0.453416], "12": ["C", 0.557829], "13": ["C", -0.330516], "14": ["H", 0.073438], "15": ["H", 0.122736], "16": ["H", 0.049226], "17": ["H", 0.074031], "18": ["H", -0.007982], "19": ["H", -0.060038], "20": ["H", 0.087729], "21": ["H", 0.06843], "22": ["H", 0.090785]}, "dipole_moment": {"X": -0.031, "Y": 2.1163, "Z": -1.3355, "Tot": 2.5026}, "functional": "B3LYP", "basis": "6-31+G*", "phase": "gas", "tag": "lis", "state": "successful", "wall_time (s)": 11.912745915004052, "version": "0.0.1", "gauss_version": "ES64L-G16RevC.01", "last_updated": "2021-09-14 20:53:58.036000", "polarizability": 84.82, "fluorinated-solvent": "91801930", "run_ids": ["61410a9f9e0bec36017a65a2", "61410b55f01c411d8d3edd37"]}