{"_id": "6141155c303e3f3f79913423", "molecule": {"@module": "pymatgen.core.structure", "@class": "Molecule", "charge": 0, "spin_multiplicity": 1, "sites": [{"name": "F", "species": [{"element": "F", "occu": 1}], "xyz": [0.784634, 0.256562, -0.055152], "properties": {}}, {"name": "F", "species": [{"element": "F", "occu": 1}], "xyz": [2.292807, -0.903151, 1.021183], "properties": {}}, {"name": "F", "species": [{"element": "F", "occu": 1}], "xyz": [3.309379, -2.52024, -0.931254], "properties": {}}, {"name": "F", "species": [{"element": "F", "occu": 1}], "xyz": [1.198747, -2.122331, -1.343387], "properties": {}}, {"name": "O", "species": [{"element": "O", "occu": 1}], "xyz": [2.645278, -0.374994, -1.163793], "properties": {}}, {"name": "C", "species": [{"element": "C", "occu": 1}], "xyz": [2.838615, 1.344103, 0.454438], "properties": {}}, {"name": "C", "species": [{"element": "C", "occu": 1}], "xyz": [2.139054, 0.058454, 0.059596], "properties": {}}, {"name": "C", "species": [{"element": "C", "occu": 1}], "xyz": [2.464819, -1.679627, -1.614464], "properties": {}}, {"name": "C", "species": [{"element": "C", "occu": 1}], "xyz": [2.305967, 1.927851, 1.765936], "properties": {}}, {"name": "C", "species": [{"element": "C", "occu": 1}], "xyz": [2.749646, -1.741577, -3.094093], "properties": {}}, {"name": "H", "species": [{"element": "H", "occu": 1}], "xyz": [3.906704, 1.113563, 0.527309], "properties": {}}, {"name": "H", "species": [{"element": "H", "occu": 1}], "xyz": [2.707246, 2.047232, -0.374886], "properties": {}}, {"name": "H", "species": [{"element": "H", "occu": 1}], "xyz": [2.438911, 1.22376, 2.593514], "properties": {}}, {"name": "H", "species": [{"element": "H", "occu": 1}], "xyz": [2.847474, 2.847709, 2.009943], "properties": {}}, {"name": "H", "species": [{"element": "H", "occu": 1}], "xyz": [1.241073, 2.168154, 1.687523], "properties": {}}, {"name": "H", "species": [{"element": "H", "occu": 1}], "xyz": [2.037415, -1.1079, -3.627341], "properties": {}}, {"name": "H", "species": [{"element": "H", "occu": 1}], "xyz": [3.767077, -1.391933, -3.283622], "properties": {}}, {"name": "H", "species": [{"element": "H", "occu": 1}], "xyz": [2.647764, -2.776716, -3.427907], "properties": {}}]}, "smiles": "FC(F)(OC(F)(F)C)CC", "inchi": "InChI=1S/C5H8F4O/c1-3-5(8,9)10-4(2,6)7/h3H2,1-2H3", "formula_alphabetical": "C5 F4 H8 O1", "chemsys": "C-F-H-O", "energy": -670.000778727, "esp": {"1": ["F", -0.245189], "2": ["F", -0.236218], "3": ["F", -0.266932], "4": ["F", -0.255731], "5": ["O", -0.531129], "6": ["C", -0.038282], "7": ["C", 0.684413], "8": ["C", 0.815092], "9": ["C", -0.257598], "10": ["C", -0.526221], "11": ["H", 0.059294], "12": ["H", 0.061885], "13": ["H", 0.078913], "14": ["H", 0.084978], "15": ["H", 0.077059], "16": ["H", 0.171279], "17": ["H", 0.168117], "18": ["H", 0.156271]}, "dipole_moment": {"X": 1.5394, "Y": 2.1183, "Z": -1.583, "Tot": 3.0599}, "functional": "B3LYP", "basis": "6-31+G*", "phase": "gas", "tag": "lis", "state": "successful", "wall_time (s)": 9.056188258924522, "version": "0.0.1", "gauss_version": "ES64L-G16RevC.01", "last_updated": "2021-09-14 21:34:20.044000", "polarizability": 67.0, "fluorinated-solvent": "88886798", "run_ids": ["6141153b1b1c5f00bd90f750", "61411552675fc64793ee6dcf"]}