{"_id": "614111a8842bea7cb7242800", "molecule": {"@module": "pymatgen.core.structure", "@class": "Molecule", "charge": 0, "spin_multiplicity": 1, "sites": [{"name": "F", "species": [{"element": "F", "occu": 1}], "xyz": [1.149847, -0.07008, -0.191262], "properties": {}}, {"name": "F", "species": [{"element": "F", "occu": 1}], "xyz": [2.789017, -1.157495, 0.754385], "properties": {}}, {"name": "F", "species": [{"element": "F", "occu": 1}], "xyz": [3.181837, 0.14272, -0.953797], "properties": {}}, {"name": "F", "species": [{"element": "F", "occu": 1}], "xyz": [2.312892, 2.229505, 3.178438], "properties": {}}, {"name": "F", "species": [{"element": "F", "occu": 1}], "xyz": [0.709428, 0.977214, 2.391381], "properties": {}}, {"name": "F", "species": [{"element": "F", "occu": 1}], "xyz": [2.52105, 0.056749, 3.18829], "properties": {}}, {"name": "F", "species": [{"element": "F", "occu": 1}], "xyz": [2.421641, 4.210567, -1.639376], "properties": {}}, {"name": "F", "species": [{"element": "F", "occu": 1}], "xyz": [1.35636, 4.965407, 0.107081], "properties": {}}, {"name": "F", "species": [{"element": "F", "occu": 1}], "xyz": [3.390065, 5.652022, -0.310622], "properties": {}}, {"name": "O", "species": [{"element": "O", "occu": 1}], "xyz": [2.291072, 2.355699, 0.436282], "properties": {}}, {"name": "C", "species": [{"element": "C", "occu": 1}], "xyz": [2.725304, 1.199899, 1.099012], "properties": {}}, {"name": "C", "species": [{"element": "C", "occu": 1}], "xyz": [2.439309, 0.006617, 0.166793], "properties": {}}, {"name": "C", "species": [{"element": "C", "occu": 1}], "xyz": [2.041411, 1.098539, 2.478957], "properties": {}}, {"name": "C", "species": [{"element": "C", "occu": 1}], "xyz": [3.167953, 3.468969, 0.498518], "properties": {}}, {"name": "C", "species": [{"element": "C", "occu": 1}], "xyz": [2.562414, 4.577093, -0.350437], "properties": {}}, {"name": "H", "species": [{"element": "H", "occu": 1}], "xyz": [3.807222, 1.195193, 1.283202], "properties": {}}, {"name": "H", "species": [{"element": "H", "occu": 1}], "xyz": [3.276045, 3.845913, 1.521273], "properties": {}}, {"name": "H", "species": [{"element": "H", "occu": 1}], "xyz": [4.152932, 3.225759, 0.079934], "properties": {}}]}, "smiles": "FC(F)(F)C(OCC(F)(F)F)C(F)(F)F", "inchi": "InChI=1S/C5H3F9O/c6-3(7,8)1-15-2(4(9,10)11)5(12,13)14/h2H,1H2", "formula_alphabetical": "C5 F9 H3 O1", "chemsys": "C-F-H-O", "energy": -1166.19827467, "esp": {"1": ["F", -0.160608], "2": ["F", -0.191887], "3": ["F", -0.173548], "4": ["F", -0.176766], "5": ["F", -0.154557], "6": ["F", -0.193289], "7": ["F", -0.192631], "8": ["F", -0.188009], "9": ["F", -0.228632], "10": ["O", -0.246021], "11": ["C", -0.201346], "12": ["C", 0.580832], "13": ["C", 0.578067], "14": ["C", -0.150063], "15": ["C", 0.633381], "16": ["H", 0.181629], "17": ["H", 0.139137], "18": ["H", 0.14431]}, "dipole_moment": {"X": 2.8558, "Y": 0.1481, "Z": 1.093, "Tot": 3.0614}, "functional": "B3LYP", "basis": "6-31+G*", "phase": "gas", "tag": "lis", "state": "successful", "wall_time (s)": 12.71630178403575, "version": "0.0.1", "gauss_version": "ES64L-G16RevC.01", "last_updated": "2021-09-14 21:18:31.775000", "polarizability": 71.08, "fluorinated-solvent": "87130814", "run_ids": ["61411116ef6bd60746836aa6", "61411157f9986c1c5e7d70c6"]}