{"_id": "61411f99dc0b0069c5e97dbd", "molecule": {"@module": "pymatgen.core.structure", "@class": "Molecule", "charge": 0, "spin_multiplicity": 1, "sites": [{"name": "F", "species": [{"element": "F", "occu": 1}], "xyz": [4.24071, 0.309867, 1.074325], "properties": {}}, {"name": "F", "species": [{"element": "F", "occu": 1}], "xyz": [4.713829, 0.103968, -1.073058], "properties": {}}, {"name": "F", "species": [{"element": "F", "occu": 1}], "xyz": [0.805459, 4.6597, 0.450012], "properties": {}}, {"name": "F", "species": [{"element": "F", "occu": 1}], "xyz": [-0.997101, 3.557672, 1.080766], "properties": {}}, {"name": "F", "species": [{"element": "F", "occu": 1}], "xyz": [4.707093, 2.884973, 1.1244], "properties": {}}, {"name": "F", "species": [{"element": "F", "occu": 1}], "xyz": [0.56668, 4.638989, 3.102967], "properties": {}}, {"name": "F", "species": [{"element": "F", "occu": 1}], "xyz": [7.117009, 3.225628, 0.115792], "properties": {}}, {"name": "F", "species": [{"element": "F", "occu": 1}], "xyz": [6.9665, 1.125672, 0.678887], "properties": {}}, {"name": "F", "species": [{"element": "F", "occu": 1}], "xyz": [6.848404, 1.708346, -1.425764], "properties": {}}, {"name": "F", "species": [{"element": "F", "occu": 1}], "xyz": [1.133808, 2.402908, 4.546859], "properties": {}}, {"name": "F", "species": [{"element": "F", "occu": 1}], "xyz": [-0.787695, 2.241024, 3.534403], "properties": {}}, {"name": "F", "species": [{"element": "F", "occu": 1}], "xyz": [0.935118, 1.128446, 2.785639], "properties": {}}, {"name": "O", "species": [{"element": "O", "occu": 1}], "xyz": [2.156331, 2.17196, 0.242993], "properties": {}}, {"name": "C", "species": [{"element": "C", "occu": 1}], "xyz": [4.156357, 0.938626, -0.132675], "properties": {}}, {"name": "C", "species": [{"element": "C", "occu": 1}], "xyz": [0.369739, 3.495994, 1.034257], "properties": {}}, {"name": "C", "species": [{"element": "C", "occu": 1}], "xyz": [2.691854, 1.118718, -0.524392], "properties": {}}, {"name": "C", "species": [{"element": "C", "occu": 1}], "xyz": [0.755053, 2.322248, 0.140754], "properties": {}}, {"name": "C", "species": [{"element": "C", "occu": 1}], "xyz": [4.976387, 2.252061, -0.071804], "properties": {}}, {"name": "C", "species": [{"element": "C", "occu": 1}], "xyz": [0.96279, 3.48445, 2.457205], "properties": {}}, {"name": "C", "species": [{"element": "C", "occu": 1}], "xyz": [6.503051, 2.058994, -0.168095], "properties": {}}, {"name": "C", "species": [{"element": "C", "occu": 1}], "xyz": [0.541041, 2.300891, 3.343097], "properties": {}}, {"name": "H", "species": [{"element": "H", "occu": 1}], "xyz": [2.6413, 1.342729, -1.600487], "properties": {}}, {"name": "H", "species": [{"element": "H", "occu": 1}], "xyz": [2.180457, 0.165029, -0.331028], "properties": {}}, {"name": "H", "species": [{"element": "H", "occu": 1}], "xyz": [0.440122, 2.571484, -0.882725], "properties": {}}, {"name": "H", "species": [{"element": "H", "occu": 1}], "xyz": [0.228656, 1.41924, 0.473807], "properties": {}}, {"name": "H", "species": [{"element": "H", "occu": 1}], "xyz": [4.679622, 2.911989, -0.892882], "properties": {}}, {"name": "H", "species": [{"element": "H", "occu": 1}], "xyz": [2.052906, 3.470881, 2.374467], "properties": {}}]}, "smiles": "FC(F)(COCC(F)(F)[C@@H](F)C(F)(F)F)[C@@H](F)C(F)(F)F", "inchi": "InChI=1S/C8H6F12O/c9-3(7(15,16)17)5(11,12)1-21-2-6(13,14)4(10)8(18,19)20/h3-4H,1-2H2/t3-,4-/m1/s1", "formula_alphabetical": "C8 F12 H6 O1", "chemsys": "C-F-H-O", "energy": -1581.84611414, "esp": {"1": ["F", -0.167804], "2": ["F", -0.206035], "3": ["F", -0.188489], "4": ["F", -0.185905], "5": ["F", -0.166336], "6": ["F", -0.171548], "7": ["F", -0.197265], "8": ["F", -0.166824], "9": ["F", -0.211595], "10": ["F", -0.145829], "11": ["F", -0.134512], "12": ["F", -0.152205], "13": ["O", -0.198732], "14": ["C", 0.375075], "15": ["C", 0.384224], "16": ["C", -0.108116], "17": ["C", -0.250363], "18": ["C", -0.132153], "19": ["C", 0.032091], "20": ["C", 0.636745], "21": ["C", 0.408734], "22": ["H", 0.112447], "23": ["H", 0.149798], "24": ["H", 0.180089], "25": ["H", 0.147737], "26": ["H", 0.189905], "27": ["H", 0.166868]}, "dipole_moment": {"X": -1.1718, "Y": -1.3713, "Z": -3.7232, "Tot": 4.1371}, "functional": "B3LYP", "basis": "6-31+G*", "phase": "gas", "tag": "lis", "state": "successful", "wall_time (s)": 26.82535978895612, "version": "0.0.1", "gauss_version": "ES64L-G16RevC.01", "last_updated": "2021-09-14 22:18:00.834000", "polarizability": 107.22, "fluorinated-solvent": "57052165", "run_ids": ["61411f5eef0727abf15b0f5f", "61411f8f3acb07298f7d0848"]}