{"_id": "613a4f67373dbfc6bc448f17", "molecule": {"@module": "pymatgen.core.structure", "@class": "Molecule", "charge": 0, "spin_multiplicity": 1, "sites": [{"name": "F", "species": [{"element": "F", "occu": 1}], "xyz": [4.716179, -0.784185, -1.084408], "properties": {}}, {"name": "F", "species": [{"element": "F", "occu": 1}], "xyz": [4.794217, 0.942831, -2.454839], "properties": {}}, {"name": "F", "species": [{"element": "F", "occu": 1}], "xyz": [-0.894608, 3.3405, -1.749913], "properties": {}}, {"name": "F", "species": [{"element": "F", "occu": 1}], "xyz": [0.858696, 4.062841, -0.622539], "properties": {}}, {"name": "F", "species": [{"element": "F", "occu": 1}], "xyz": [6.276735, 1.127066, -0.156325], "properties": {}}, {"name": "F", "species": [{"element": "F", "occu": 1}], "xyz": [4.758528, 2.692161, -0.456206], "properties": {}}, {"name": "F", "species": [{"element": "F", "occu": 1}], "xyz": [0.388766, 5.239398, -3.053142], "properties": {}}, {"name": "F", "species": [{"element": "F", "occu": 1}], "xyz": [2.345804, 4.260775, -2.814947], "properties": {}}, {"name": "F", "species": [{"element": "F", "occu": 1}], "xyz": [5.134126, 1.893641, 2.149214], "properties": {}}, {"name": "F", "species": [{"element": "F", "occu": 1}], "xyz": [3.127344, 1.504892, 1.390297], "properties": {}}, {"name": "F", "species": [{"element": "F", "occu": 1}], "xyz": [4.537807, -0.141675, 1.633976], "properties": {}}, {"name": "F", "species": [{"element": "F", "occu": 1}], "xyz": [1.22931, 4.073213, -5.321386], "properties": {}}, {"name": "F", "species": [{"element": "F", "occu": 1}], "xyz": [1.506925, 2.147932, -4.336218], "properties": {}}, {"name": "F", "species": [{"element": "F", "occu": 1}], "xyz": [-0.490598, 3.010007, -4.499863], "properties": {}}, {"name": "O", "species": [{"element": "O", "occu": 1}], "xyz": [2.281573, 1.774274, -1.4683], "properties": {}}, {"name": "C", "species": [{"element": "C", "occu": 1}], "xyz": [4.287229, 0.50281, -1.269998], "properties": {}}, {"name": "C", "species": [{"element": "C", "occu": 1}], "xyz": [0.472968, 3.310055, -1.689788], "properties": {}}, {"name": "C", "species": [{"element": "C", "occu": 1}], "xyz": [2.764992, 0.459252, -1.337218], "properties": {}}, {"name": "C", "species": [{"element": "C", "occu": 1}], "xyz": [0.876778, 1.855755, -1.476317], "properties": {}}, {"name": "C", "species": [{"element": "C", "occu": 1}], "xyz": [4.943698, 1.385845, -0.16089], "properties": {}}, {"name": "C", "species": [{"element": "C", "occu": 1}], "xyz": [1.019514, 4.040627, -2.957992], "properties": {}}, {"name": "C", "species": [{"element": "C", "occu": 1}], "xyz": [4.425474, 1.153344, 1.289254], "properties": {}}, {"name": "C", "species": [{"element": "C", "occu": 1}], "xyz": [0.80877, 3.301633, -4.312631], "properties": {}}, {"name": "H", "species": [{"element": "H", "occu": 1}], "xyz": [2.509811, -0.159764, -2.210075], "properties": {}}, {"name": "H", "species": [{"element": "H", "occu": 1}], "xyz": [2.383373, -0.02956, -0.430414], "properties": {}}, {"name": "H", "species": [{"element": "H", "occu": 1}], "xyz": [0.434905, 1.243688, -2.274433], "properties": {}}, {"name": "H", "species": [{"element": "H", "occu": 1}], "xyz": [0.443448, 1.551112, -0.512157], "properties": {}}]}, "smiles": "FC(F)(COCC(F)(F)C(F)(F)C(F)(F)F)C(F)(F)C(F)(F)F", "inchi": "InChI=1S/C8H4F14O/c9-3(10,5(13,14)7(17,18)19)1-23-2-4(11,12)6(15,16)8(20,21)22/h1-2H2", "formula_alphabetical": "C8 F14 H4 O1", "chemsys": "C-F-H-O", "energy": -1780.32300966, "esp": {"1": ["F", -0.203807], "2": ["F", -0.15836], "3": ["F", -0.193193], "4": ["F", -0.145855], "5": ["F", -0.126071], "6": ["F", -0.120799], "7": ["F", -0.121149], "8": ["F", -0.116318], "9": ["F", -0.115494], "10": ["F", -0.117677], "11": ["F", -0.13061], "12": ["F", -0.136834], "13": ["F", -0.138159], "14": ["F", -0.150703], "15": ["O", -0.249548], "16": ["C", 0.385118], "17": ["C", 0.366769], "18": ["C", -0.142298], "19": ["C", -0.187283], "20": ["C", 0.210134], "21": ["C", 0.172395], "22": ["C", 0.369266], "23": ["C", 0.459269], "24": ["H", 0.167753], "25": ["H", 0.115733], "26": ["H", 0.131158], "27": ["H", 0.176566]}, "dipole_moment": {"X": -2.2006, "Y": -2.9467, "Z": 0.2898, "Tot": 3.6891}, "functional": "B3LYP", "basis": "6-31+G*", "phase": "gas", "tag": "lis", "state": "successful", "wall_time (s)": 34.812791236909106, "version": "0.0.1", "gauss_version": "ES64L-G16RevC.01", "last_updated": "2021-09-09 18:16:07.480000", "polarizability": 109.14, "fluorinated-solvent": "22646028", "run_ids": ["613a4a69deacbbc6310a4244", "613a4f605467fb3dafa34645"]}