{"_id": "613a4c9ccefe2add4d2d3fa2", "molecule": {"@module": "pymatgen.core.structure", "@class": "Molecule", "charge": 0, "spin_multiplicity": 1, "sites": [{"name": "F", "species": [{"element": "F", "occu": 1}], "xyz": [0.988207, -0.801332, -0.580253], "properties": {}}, {"name": "F", "species": [{"element": "F", "occu": 1}], "xyz": [1.799545, -2.523528, -1.651313], "properties": {}}, {"name": "F", "species": [{"element": "F", "occu": 1}], "xyz": [2.44961, -0.503083, -2.167096], "properties": {}}, {"name": "F", "species": [{"element": "F", "occu": 1}], "xyz": [4.983847, -1.463885, -1.733177], "properties": {}}, {"name": "F", "species": [{"element": "F", "occu": 1}], "xyz": [5.43995, -2.087491, 0.338487], "properties": {}}, {"name": "O", "species": [{"element": "O", "occu": 1}], "xyz": [2.760236, -2.143015, 0.995896], "properties": {}}, {"name": "C", "species": [{"element": "C", "occu": 1}], "xyz": [3.233816, -1.404815, -0.09692], "properties": {}}, {"name": "C", "species": [{"element": "C", "occu": 1}], "xyz": [2.957774, -1.558498, 2.311213], "properties": {}}, {"name": "C", "species": [{"element": "C", "occu": 1}], "xyz": [2.107266, -1.309416, -1.138281], "properties": {}}, {"name": "C", "species": [{"element": "C", "occu": 1}], "xyz": [4.477344, -2.119273, -0.642662], "properties": {}}, {"name": "C", "species": [{"element": "C", "occu": 1}], "xyz": [1.934634, -0.454148, 2.566895], "properties": {}}, {"name": "C", "species": [{"element": "C", "occu": 1}], "xyz": [2.838936, -2.715189, 3.29282], "properties": {}}, {"name": "H", "species": [{"element": "H", "occu": 1}], "xyz": [3.517093, -0.376597, 0.161868], "properties": {}}, {"name": "H", "species": [{"element": "H", "occu": 1}], "xyz": [3.977378, -1.149934, 2.34967], "properties": {}}, {"name": "H", "species": [{"element": "H", "occu": 1}], "xyz": [4.290349, -3.162788, -0.907093], "properties": {}}, {"name": "H", "species": [{"element": "H", "occu": 1}], "xyz": [0.91899, -0.860866, 2.514364], "properties": {}}, {"name": "H", "species": [{"element": "H", "occu": 1}], "xyz": [2.091035, -0.020194, 3.561449], "properties": {}}, {"name": "H", "species": [{"element": "H", "occu": 1}], "xyz": [2.013965, 0.35483, 1.832292], "properties": {}}, {"name": "H", "species": [{"element": "H", "occu": 1}], "xyz": [3.587878, -3.48263, 3.073742], "properties": {}}, {"name": "H", "species": [{"element": "H", "occu": 1}], "xyz": [2.989181, -2.358615, 4.317922], "properties": {}}, {"name": "H", "species": [{"element": "H", "occu": 1}], "xyz": [1.843855, -3.169212, 3.224068], "properties": {}}]}, "smiles": "FC(F)(F)[C@@H](OC(C)C)C(F)F", "inchi": "InChI=1S/C6H9F5O/c1-3(2)12-4(5(7)8)6(9,10)11/h3-5H,1-2H3/t4-/m0/s1", "formula_alphabetical": "C6 F5 H9 O1", "chemsys": "C-F-H-O", "energy": -808.531355082, "esp": {"1": ["F", -0.173745], "2": ["F", -0.177569], "3": ["F", -0.193817], "4": ["F", -0.22614], "5": ["F", -0.221653], "6": ["O", -0.43039], "7": ["C", -0.107648], "8": ["C", 0.588239], "9": ["C", 0.537361], "10": ["C", 0.366097], "11": ["C", -0.496965], "12": ["C", -0.493241], "13": ["H", 0.163164], "14": ["H", -0.015718], "15": ["H", 0.114341], "16": ["H", 0.150525], "17": ["H", 0.115834], "18": ["H", 0.114533], "19": ["H", 0.12603], "20": ["H", 0.120634], "21": ["H", 0.140129]}, "dipole_moment": {"X": 0.0093, "Y": 0.2749, "Z": 2.7131, "Tot": 2.727}, "functional": "B3LYP", "basis": "6-31+G*", "phase": "gas", "tag": "lis", "state": "successful", "wall_time (s)": 10.972960812970996, "version": "0.0.1", "gauss_version": "ES64L-G16RevC.01", "last_updated": "2021-09-09 18:04:12.713000", "polarizability": 79.57, "fluorinated-solvent": "54074909", "run_ids": ["613a49972f2c9b81b1237f4d", "613a4b6b023eacb033dd7fba"]}