{"_id": "61410dc60015010a26beac07", "molecule": {"@module": "pymatgen.core.structure", "@class": "Molecule", "charge": 0, "spin_multiplicity": 1, "sites": [{"name": "F", "species": [{"element": "F", "occu": 1}], "xyz": [3.053486, 0.786523, -0.9518], "properties": {}}, {"name": "F", "species": [{"element": "F", "occu": 1}], "xyz": [2.862147, -1.321358, -0.302634], "properties": {}}, {"name": "F", "species": [{"element": "F", "occu": 1}], "xyz": [0.425287, 1.23767, -0.006771], "properties": {}}, {"name": "F", "species": [{"element": "F", "occu": 1}], "xyz": [2.170764, 1.052947, 3.959465], "properties": {}}, {"name": "F", "species": [{"element": "F", "occu": 1}], "xyz": [1.772404, -1.066255, 4.317039], "properties": {}}, {"name": "F", "species": [{"element": "F", "occu": 1}], "xyz": [3.798695, -0.38473, 3.861079], "properties": {}}, {"name": "O", "species": [{"element": "O", "occu": 1}], "xyz": [2.203425, -0.440302, 2.278489], "properties": {}}, {"name": "C", "species": [{"element": "C", "occu": 1}], "xyz": [2.42462, -0.041809, -0.052127], "properties": {}}, {"name": "C", "species": [{"element": "C", "occu": 1}], "xyz": [2.877873, 0.404023, 1.328923], "properties": {}}, {"name": "C", "species": [{"element": "C", "occu": 1}], "xyz": [0.922957, -0.030772, -0.300479], "properties": {}}, {"name": "C", "species": [{"element": "C", "occu": 1}], "xyz": [2.482877, -0.211224, 3.576731], "properties": {}}, {"name": "H", "species": [{"element": "H", "occu": 1}], "xyz": [3.961813, 0.279289, 1.402454], "properties": {}}, {"name": "H", "species": [{"element": "H", "occu": 1}], "xyz": [2.595494, 1.449042, 1.479536], "properties": {}}, {"name": "H", "species": [{"element": "H", "occu": 1}], "xyz": [0.731867, -0.25289, -1.354024], "properties": {}}, {"name": "H", "species": [{"element": "H", "occu": 1}], "xyz": [0.43538, -0.759801, 0.351029], "properties": {}}]}, "smiles": "FC(F)(COC(F)(F)F)CF", "inchi": "InChI=1S/C4H4F6O/c5-1-3(6,7)2-11-4(8,9)10/h1-2H2", "formula_alphabetical": "C4 F6 H4 O1", "chemsys": "C-F-H-O", "energy": -829.152587652, "esp": {"1": ["F", -0.221331], "2": ["F", -0.226066], "3": ["F", -0.222897], "4": ["F", -0.196615], "5": ["F", -0.17749], "6": ["F", -0.204175], "7": ["O", -0.298542], "8": ["C", 0.423692], "9": ["C", -0.118401], "10": ["C", 0.04306], "11": ["C", 0.677453], "12": ["H", 0.165094], "13": ["H", 0.137725], "14": ["H", 0.117812], "15": ["H", 0.100681]}, "dipole_moment": {"X": -0.1838, "Y": -0.1751, "Z": -0.9001, "Tot": 0.9353}, "functional": "B3LYP", "basis": "6-31+G*", "phase": "gas", "tag": "lis", "state": "successful", "wall_time (s)": 7.559502133983187, "version": "0.0.1", "gauss_version": "ES64L-G16RevC.01", "last_updated": "2021-09-14 21:01:58.499000", "polarizability": 56.58, "fluorinated-solvent": "140375014", "run_ids": ["61410d9450d11a9be2d69f5b", "61410da8a75128d6c92f78dc"]}