{"_id": "61411487df84cc1fcfdcb16d", "molecule": {"@module": "pymatgen.core.structure", "@class": "Molecule", "charge": 0, "spin_multiplicity": 1, "sites": [{"name": "F", "species": [{"element": "F", "occu": 1}], "xyz": [4.581412, -0.433373, -0.756513], "properties": {}}, {"name": "F", "species": [{"element": "F", "occu": 1}], "xyz": [4.642954, 1.551112, -1.654271], "properties": {}}, {"name": "F", "species": [{"element": "F", "occu": 1}], "xyz": [4.449546, 2.709718, 0.875187], "properties": {}}, {"name": "F", "species": [{"element": "F", "occu": 1}], "xyz": [4.409367, 0.695932, 1.777075], "properties": {}}, {"name": "F", "species": [{"element": "F", "occu": 1}], "xyz": [1.625779, -0.819745, -1.102037], "properties": {}}, {"name": "F", "species": [{"element": "F", "occu": 1}], "xyz": [0.189027, 1.528121, -0.443251], "properties": {}}, {"name": "F", "species": [{"element": "F", "occu": 1}], "xyz": [1.285725, 2.595102, -2.005008], "properties": {}}, {"name": "F", "species": [{"element": "F", "occu": 1}], "xyz": [-2.514113, -0.358788, -3.045095], "properties": {}}, {"name": "F", "species": [{"element": "F", "occu": 1}], "xyz": [-3.085258, 1.442482, -4.194185], "properties": {}}, {"name": "F", "species": [{"element": "F", "occu": 1}], "xyz": [6.824095, 1.912654, 1.925781], "properties": {}}, {"name": "F", "species": [{"element": "F", "occu": 1}], "xyz": [6.873712, 0.154497, 0.636145], "properties": {}}, {"name": "F", "species": [{"element": "F", "occu": 1}], "xyz": [6.912898, 2.154204, -0.239629], "properties": {}}, {"name": "F", "species": [{"element": "F", "occu": 1}], "xyz": [-2.206033, -0.523252, -5.804948], "properties": {}}, {"name": "F", "species": [{"element": "F", "occu": 1}], "xyz": [-0.713082, 1.109497, -5.699882], "properties": {}}, {"name": "O", "species": [{"element": "O", "occu": 1}], "xyz": [2.844667, 0.967971, -0.434455], "properties": {}}, {"name": "O", "species": [{"element": "O", "occu": 1}], "xyz": [0.020192, 0.820665, -2.574032], "properties": {}}, {"name": "C", "species": [{"element": "C", "occu": 1}], "xyz": [4.196604, 0.856463, -0.569696], "properties": {}}, {"name": "C", "species": [{"element": "C", "occu": 1}], "xyz": [4.849325, 1.425266, 0.725749], "properties": {}}, {"name": "C", "species": [{"element": "C", "occu": 1}], "xyz": [2.055477, 0.429008, -1.461963], "properties": {}}, {"name": "C", "species": [{"element": "C", "occu": 1}], "xyz": [0.834699, 1.353411, -1.631332], "properties": {}}, {"name": "C", "species": [{"element": "C", "occu": 1}], "xyz": [-1.157603, 1.580638, -2.900523], "properties": {}}, {"name": "C", "species": [{"element": "C", "occu": 1}], "xyz": [-2.024774, 0.689669, -3.776606], "properties": {}}, {"name": "C", "species": [{"element": "C", "occu": 1}], "xyz": [6.409306, 1.407403, 0.754473], "properties": {}}, {"name": "C", "species": [{"element": "C", "occu": 1}], "xyz": [-1.301751, 0.090584, -4.997861], "properties": {}}, {"name": "H", "species": [{"element": "H", "occu": 1}], "xyz": [2.600572, 0.357981, -2.406468], "properties": {}}, {"name": "H", "species": [{"element": "H", "occu": 1}], "xyz": [-1.722998, 1.832747, -1.999599], "properties": {}}, {"name": "H", "species": [{"element": "H", "occu": 1}], "xyz": [-0.885327, 2.483418, -3.452192], "properties": {}}, {"name": "H", "species": [{"element": "H", "occu": 1}], "xyz": [-0.534968, -0.627969, -4.699475], "properties": {}}]}, "smiles": "FC(F)(O[C@@H](F)C(F)(F)OCC(F)(F)C(F)F)C(F)(F)C(F)(F)F", "inchi": "InChI=1S/C8H4F14O2/c9-2(10)4(12,13)1-23-5(14,15)3(11)24-8(21,22)6(16,17)7(18,19)20/h2-3H,1H2/t3-/m1/s1", "formula_alphabetical": "C8 F14 H4 O2", "chemsys": "C-F-H-O", "energy": -1855.5641895, "esp": {"1": ["F", -0.134748], "2": ["F", -0.157924], "3": ["F", -0.113207], "4": ["F", -0.103189], "5": ["F", -0.164932], "6": ["F", -0.152799], "7": ["F", -0.190128], "8": ["F", -0.183004], "9": ["F", -0.182066], "10": ["F", -0.148676], "11": ["F", -0.159391], "12": ["F", -0.153195], "13": ["F", -0.18942], "14": ["F", -0.201683], "15": ["O", -0.200525], "16": ["O", -0.320932], "17": ["C", 0.363072], "18": ["C", 0.132367], "19": ["C", 0.152908], "20": ["C", 0.438332], "21": ["C", -0.074701], "22": ["C", 0.322027], "23": ["C", 0.524166], "24": ["C", 0.325227], "25": ["H", 0.16369], "26": ["H", 0.168932], "27": ["H", 0.137763], "28": ["H", 0.102035]}, "dipole_moment": {"X": 0.7934, "Y": 0.4797, "Z": -0.5965, "Tot": 1.1024}, "functional": "B3LYP", "basis": "6-31+G*", "phase": "gas", "tag": "lis", "state": "successful", "wall_time (s)": 31.064971658983268, "version": "0.0.1", "gauss_version": "ES64L-G16RevC.01", "last_updated": "2021-09-14 21:30:47.244000", "polarizability": 114.5, "fluorinated-solvent": "134451373", "run_ids": ["614113fa4bef50ebe5b4ff88", "6141145e5cf30e7cc9cad960"]}