{"_id": "613a580fab9ad3e989ec0dcf", "molecule": {"@module": "pymatgen.core.structure", "@class": "Molecule", "charge": 0, "spin_multiplicity": 1, "sites": [{"name": "F", "species": [{"element": "F", "occu": 1}], "xyz": [3.470094, 0.570987, 1.167991], "properties": {}}, {"name": "F", "species": [{"element": "F", "occu": 1}], "xyz": [1.370335, 0.134604, 0.654536], "properties": {}}, {"name": "F", "species": [{"element": "F", "occu": 1}], "xyz": [2.902908, -2.102116, 1.02297], "properties": {}}, {"name": "F", "species": [{"element": "F", "occu": 1}], "xyz": [2.214124, -1.881812, -1.037677], "properties": {}}, {"name": "F", "species": [{"element": "F", "occu": 1}], "xyz": [4.294009, -1.449674, -0.528907], "properties": {}}, {"name": "F", "species": [{"element": "F", "occu": 1}], "xyz": [0.811305, 4.593487, -0.800768], "properties": {}}, {"name": "F", "species": [{"element": "F", "occu": 1}], "xyz": [2.88807, 5.025577, -0.29527], "properties": {}}, {"name": "F", "species": [{"element": "F", "occu": 1}], "xyz": [2.140633, 5.463751, -2.302535], "properties": {}}, {"name": "O", "species": [{"element": "O", "occu": 1}], "xyz": [2.410322, 2.29939, -0.705496], "properties": {}}, {"name": "C", "species": [{"element": "C", "occu": 1}], "xyz": [2.64755, 0.118034, 0.181087], "properties": {}}, {"name": "C", "species": [{"element": "C", "occu": 1}], "xyz": [2.771871, 0.987024, -1.066115], "properties": {}}, {"name": "C", "species": [{"element": "C", "occu": 1}], "xyz": [3.021207, -1.365333, -0.086458], "properties": {}}, {"name": "C", "species": [{"element": "C", "occu": 1}], "xyz": [2.483397, 3.205678, -1.780608], "properties": {}}, {"name": "C", "species": [{"element": "C", "occu": 1}], "xyz": [2.0738, 4.580154, -1.272684], "properties": {}}, {"name": "H", "species": [{"element": "H", "occu": 1}], "xyz": [3.810749, 0.936303, -1.423359], "properties": {}}, {"name": "H", "species": [{"element": "H", "occu": 1}], "xyz": [2.105119, 0.581045, -1.840764], "properties": {}}, {"name": "H", "species": [{"element": "H", "occu": 1}], "xyz": [3.504671, 3.287802, -2.180267], "properties": {}}, {"name": "H", "species": [{"element": "H", "occu": 1}], "xyz": [1.797455, 2.932589, -2.595705], "properties": {}}]}, "smiles": "FC(F)(COCC(F)(F)F)C(F)(F)F", "inchi": "InChI=1S/C5H4F8O/c6-3(7,5(11,12)13)1-14-2-4(8,9)10/h1-2H2", "formula_alphabetical": "C5 F8 H4 O1", "chemsys": "C-F-H-O", "energy": -1066.94550303, "esp": {"1": ["F", -0.160181], "2": ["F", -0.16138], "3": ["F", -0.138236], "4": ["F", -0.180223], "5": ["F", -0.179022], "6": ["F", -0.199518], "7": ["F", -0.200831], "8": ["F", -0.232927], "9": ["O", -0.210866], "10": ["C", 0.228231], "11": ["C", 0.078431], "12": ["C", 0.4936], "13": ["C", -0.326855], "14": ["C", 0.682556], "15": ["H", 0.079026], "16": ["H", 0.083084], "17": ["H", 0.17366], "18": ["H", 0.17145]}, "dipole_moment": {"X": 1.0256, "Y": -0.9659, "Z": -3.3772, "Tot": 3.6593}, "functional": "B3LYP", "basis": "6-31+G*", "phase": "gas", "tag": "lis", "state": "successful", "wall_time (s)": 9.978898934001336, "version": "0.0.1", "gauss_version": "ES64L-G16RevC.01", "last_updated": "2021-09-09 18:53:03.461000", "polarizability": 70.85, "fluorinated-solvent": "19063454", "run_ids": ["613a4b0ad84484fb4dc76c45", "613a58072d6250519bd60a49"]}