{"_id": "613a51c9d49401001dd4f57a", "molecule": {"@module": "pymatgen.core.structure", "@class": "Molecule", "charge": 0, "spin_multiplicity": 1, "sites": [{"name": "F", "species": [{"element": "F", "occu": 1}], "xyz": [0.293058, 0.392549, 4.015335], "properties": {}}, {"name": "F", "species": [{"element": "F", "occu": 1}], "xyz": [1.45233, 2.125694, 4.649106], "properties": {}}, {"name": "F", "species": [{"element": "F", "occu": 1}], "xyz": [1.649504, 0.228099, 5.721729], "properties": {}}, {"name": "O", "species": [{"element": "O", "occu": 1}], "xyz": [2.51831, 0.86533, 2.285938], "properties": {}}, {"name": "C", "species": [{"element": "C", "occu": 1}], "xyz": [3.185184, 2.128325, 2.034495], "properties": {}}, {"name": "C", "species": [{"element": "C", "occu": 1}], "xyz": [4.646654, 1.863558, 1.651209], "properties": {}}, {"name": "C", "species": [{"element": "C", "occu": 1}], "xyz": [2.374108, 2.816759, 0.944963], "properties": {}}, {"name": "C", "species": [{"element": "C", "occu": 1}], "xyz": [2.644568, 0.340505, 3.578821], "properties": {}}, {"name": "C", "species": [{"element": "C", "occu": 1}], "xyz": [5.485379, 3.138409, 1.492395], "properties": {}}, {"name": "C", "species": [{"element": "C", "occu": 1}], "xyz": [1.49701, 0.777942, 4.487562], "properties": {}}, {"name": "H", "species": [{"element": "H", "occu": 1}], "xyz": [3.150209, 2.736569, 2.949606], "properties": {}}, {"name": "H", "species": [{"element": "H", "occu": 1}], "xyz": [5.100891, 1.229543, 2.425162], "properties": {}}, {"name": "H", "species": [{"element": "H", "occu": 1}], "xyz": [4.657552, 1.276826, 0.723139], "properties": {}}, {"name": "H", "species": [{"element": "H", "occu": 1}], "xyz": [1.338358, 2.947592, 1.273305], "properties": {}}, {"name": "H", "species": [{"element": "H", "occu": 1}], "xyz": [2.790986, 3.801252, 0.70878], "properties": {}}, {"name": "H", "species": [{"element": "H", "occu": 1}], "xyz": [2.373911, 2.208411, 0.032896], "properties": {}}, {"name": "H", "species": [{"element": "H", "occu": 1}], "xyz": [3.582463, 0.625674, 4.074623], "properties": {}}, {"name": "H", "species": [{"element": "H", "occu": 1}], "xyz": [2.602551, -0.751498, 3.51514], "properties": {}}, {"name": "H", "species": [{"element": "H", "occu": 1}], "xyz": [5.448316, 3.753818, 2.400826], "properties": {}}, {"name": "H", "species": [{"element": "H", "occu": 1}], "xyz": [6.53565, 2.890587, 1.301653], "properties": {}}, {"name": "H", "species": [{"element": "H", "occu": 1}], "xyz": [5.135489, 3.754736, 0.656787], "properties": {}}]}, "smiles": "FC(F)(F)CO[C@@H](CC)C", "inchi": "InChI=1S/C6H11F3O/c1-3-5(2)10-4-6(7,8)9/h5H,3-4H2,1-2H3/t5-/m1/s1", "formula_alphabetical": "C6 F3 H11 O1", "chemsys": "C-F-H-O", "energy": -610.045698679, "esp": {"1": ["F", -0.206242], "2": ["F", -0.219565], "3": ["F", -0.254493], "4": ["O", -0.441598], "5": ["C", 0.451361], "6": ["C", 0.030135], "7": ["C", -0.470779], "8": ["C", -0.138355], "9": ["C", -0.260957], "10": ["C", 0.672182], "11": ["H", -0.000799], "12": ["H", 0.018748], "13": ["H", 0.013955], "14": ["H", 0.131274], "15": ["H", 0.109505], "16": ["H", 0.130481], "17": ["H", 0.091892], "18": ["H", 0.148072], "19": ["H", 0.049625], "20": ["H", 0.074578], "21": ["H", 0.070981]}, "dipole_moment": {"X": 2.6014, "Y": 0.4866, "Z": -0.918, "Tot": 2.8012}, "functional": "B3LYP", "basis": "6-31+G*", "phase": "gas", "tag": "lis", "state": "successful", "wall_time (s)": 11.042063490953296, "version": "0.0.1", "gauss_version": "ES64L-G16RevC.01", "last_updated": "2021-09-09 18:26:16.956000", "polarizability": 78.42, "fluorinated-solvent": "14024100", "run_ids": ["613a4aa7780064fa1018e042", "613a51c41d0f67d765e706bb"]}