{"_id": "613a4c7079aeb93149194c30", "molecule": {"@module": "pymatgen.core.structure", "@class": "Molecule", "charge": 0, "spin_multiplicity": 1, "sites": [{"name": "F", "species": [{"element": "F", "occu": 1}], "xyz": [1.313125, 0.786448, -0.484188], "properties": {}}, {"name": "F", "species": [{"element": "F", "occu": 1}], "xyz": [2.902952, 0.973441, 0.9929], "properties": {}}, {"name": "F", "species": [{"element": "F", "occu": 1}], "xyz": [3.613989, 1.577515, -1.577164], "properties": {}}, {"name": "F", "species": [{"element": "F", "occu": 1}], "xyz": [4.729475, -0.09288, -0.672128], "properties": {}}, {"name": "F", "species": [{"element": "F", "occu": 1}], "xyz": [-0.4845, -1.310383, 0.252588], "properties": {}}, {"name": "F", "species": [{"element": "F", "occu": 1}], "xyz": [-0.566611, -1.890646, 2.355554], "properties": {}}, {"name": "F", "species": [{"element": "F", "occu": 1}], "xyz": [-0.075038, 0.163419, 1.813381], "properties": {}}, {"name": "F", "species": [{"element": "F", "occu": 1}], "xyz": [4.526882, -1.388789, 2.106253], "properties": {}}, {"name": "F", "species": [{"element": "F", "occu": 1}], "xyz": [4.053026, -1.727369, 4.206999], "properties": {}}, {"name": "F", "species": [{"element": "F", "occu": 1}], "xyz": [3.536258, -3.236007, 2.711204], "properties": {}}, {"name": "F", "species": [{"element": "F", "occu": 1}], "xyz": [4.161741, -0.288266, -3.385648], "properties": {}}, {"name": "F", "species": [{"element": "F", "occu": 1}], "xyz": [3.347768, -1.892903, -2.158524], "properties": {}}, {"name": "F", "species": [{"element": "F", "occu": 1}], "xyz": [2.027746, -0.334154, -2.930386], "properties": {}}, {"name": "O", "species": [{"element": "O", "occu": 1}], "xyz": [2.292366, -1.097357, 0.285895], "properties": {}}, {"name": "C", "species": [{"element": "C", "occu": 1}], "xyz": [1.571561, -1.556765, 1.440942], "properties": {}}, {"name": "C", "species": [{"element": "C", "occu": 1}], "xyz": [2.237951, -1.244675, 2.785483], "properties": {}}, {"name": "C", "species": [{"element": "C", "occu": 1}], "xyz": [2.462124, 0.205854, -0.046612], "properties": {}}, {"name": "C", "species": [{"element": "C", "occu": 1}], "xyz": [3.533337, 0.284979, -1.179348], "properties": {}}, {"name": "C", "species": [{"element": "C", "occu": 1}], "xyz": [0.093213, -1.124784, 1.449349], "properties": {}}, {"name": "C", "species": [{"element": "C", "occu": 1}], "xyz": [3.59929, -1.897943, 2.942645], "properties": {}}, {"name": "C", "species": [{"element": "C", "occu": 1}], "xyz": [3.253311, -0.586178, -2.442992], "properties": {}}, {"name": "H", "species": [{"element": "H", "occu": 1}], "xyz": [1.553539, -2.637343, 1.284978], "properties": {}}, {"name": "H", "species": [{"element": "H", "occu": 1}], "xyz": [2.347477, -0.172356, 2.946541], "properties": {}}, {"name": "H", "species": [{"element": "H", "occu": 1}], "xyz": [1.60364, -1.648048, 3.580249], "properties": {}}]}, "smiles": "FC(F)(O[C@@H](CC(F)(F)F)C(F)(F)F)C(F)(F)C(F)(F)F", "inchi": "InChI=1S/C7H3F13O/c8-3(9,10)1-2(4(11,12)13)21-7(19,20)5(14,15)6(16,17)18/h2H,1H2/t2-/m0/s1", "formula_alphabetical": "C7 F13 H3 O1", "chemsys": "C-F-H-O", "energy": -1641.80408276, "esp": {"1": ["F", -0.129622], "2": ["F", -0.102537], "3": ["F", -0.118228], "4": ["F", -0.100916], "5": ["F", -0.1792], "6": ["F", -0.207789], "7": ["F", -0.165827], "8": ["F", -0.213074], "9": ["F", -0.238342], "10": ["F", -0.229135], "11": ["F", -0.156413], "12": ["F", -0.166872], "13": ["F", -0.152774], "14": ["O", -0.231461], "15": ["C", -0.042749], "16": ["C", -0.480497], "17": ["C", 0.285843], "18": ["C", 0.159842], "19": ["C", 0.598985], "20": ["C", 0.758205], "21": ["C", 0.526781], "22": ["H", 0.187403], "23": ["H", 0.204789], "24": ["H", 0.193589]}, "dipole_moment": {"X": -1.1518, "Y": -0.806, "Z": 1.5575, "Tot": 2.0982}, "functional": "B3LYP", "basis": "6-31+G*", "phase": "gas", "tag": "lis", "state": "successful", "wall_time (s)": 26.6507421619026, "version": "0.0.1", "gauss_version": "ES64L-G16RevC.01", "last_updated": "2021-09-09 18:03:28.167000", "polarizability": 96.06, "fluorinated-solvent": "22889459", "run_ids": ["613a498baa316b9b97e09d74", "613a4b715d37307f9fcb69c9"]}