{"_id": "613a528b9ceb311fa275d34c", "molecule": {"@module": "pymatgen.core.structure", "@class": "Molecule", "charge": 0, "spin_multiplicity": 1, "sites": [{"name": "F", "species": [{"element": "F", "occu": 1}], "xyz": [4.768239, 0.713665, -0.346216], "properties": {}}, {"name": "F", "species": [{"element": "F", "occu": 1}], "xyz": [4.643864, -0.553804, 1.428235], "properties": {}}, {"name": "F", "species": [{"element": "F", "occu": 1}], "xyz": [5.064304, 1.579308, 1.635613], "properties": {}}, {"name": "F", "species": [{"element": "F", "occu": 1}], "xyz": [-0.029038, 4.588688, 2.139704], "properties": {}}, {"name": "F", "species": [{"element": "F", "occu": 1}], "xyz": [1.775372, 5.228008, 1.096321], "properties": {}}, {"name": "F", "species": [{"element": "F", "occu": 1}], "xyz": [-0.190527, 5.788258, 0.318317], "properties": {}}, {"name": "O", "species": [{"element": "O", "occu": 1}], "xyz": [1.044913, 2.412195, 0.645073], "properties": {}}, {"name": "C", "species": [{"element": "C", "occu": 1}], "xyz": [2.847015, 0.941378, 1.042395], "properties": {}}, {"name": "C", "species": [{"element": "C", "occu": 1}], "xyz": [2.464814, 2.314603, 0.498581], "properties": {}}, {"name": "C", "species": [{"element": "C", "occu": 1}], "xyz": [0.440985, 3.53105, 0.048112], "properties": {}}, {"name": "C", "species": [{"element": "C", "occu": 1}], "xyz": [4.330334, 0.671074, 0.941071], "properties": {}}, {"name": "C", "species": [{"element": "C", "occu": 1}], "xyz": [0.503219, 4.787099, 0.9166], "properties": {}}, {"name": "H", "species": [{"element": "H", "occu": 1}], "xyz": [2.32442, 0.156372, 0.487778], "properties": {}}, {"name": "H", "species": [{"element": "H", "occu": 1}], "xyz": [2.562725, 0.862615, 2.095939], "properties": {}}, {"name": "H", "species": [{"element": "H", "occu": 1}], "xyz": [2.972152, 3.108588, 1.057352], "properties": {}}, {"name": "H", "species": [{"element": "H", "occu": 1}], "xyz": [2.73891, 2.403805, -0.562689], "properties": {}}, {"name": "H", "species": [{"element": "H", "occu": 1}], "xyz": [0.884702, 3.779501, -0.926867], "properties": {}}, {"name": "H", "species": [{"element": "H", "occu": 1}], "xyz": [-0.616921, 3.292596, -0.091719], "properties": {}}]}, "smiles": "FC(F)(F)CCOCC(F)(F)F", "inchi": "InChI=1S/C5H6F6O/c6-4(7,8)1-2-12-3-5(9,10)11/h1-3H2", "formula_alphabetical": "C5 F6 H6 O1", "chemsys": "C-F-H-O", "energy": -868.474675588, "esp": {"1": ["F", -0.231497], "2": ["F", -0.214599], "3": ["F", -0.222617], "4": ["F", -0.186971], "5": ["F", -0.203822], "6": ["F", -0.23009], "7": ["O", -0.408911], "8": ["C", -0.418624], "9": ["C", 0.421891], "10": ["C", -0.092329], "11": ["C", 0.648523], "12": ["C", 0.592525], "13": ["H", 0.151415], "14": ["H", 0.154281], "15": ["H", -0.004103], "16": ["H", 0.000281], "17": ["H", 0.097331], "18": ["H", 0.147317]}, "dipole_moment": {"X": -1.5314, "Y": -0.537, "Z": -1.6272, "Tot": 2.2981}, "functional": "B3LYP", "basis": "6-31+G*", "phase": "gas", "tag": "lis", "state": "successful", "wall_time (s)": 33.80334367300384, "version": "0.0.1", "gauss_version": "ES64L-G16RevC.01", "last_updated": "2021-09-09 18:29:31.127000", "polarizability": 68.67, "fluorinated-solvent": "23524070", "run_ids": ["613a4ab20b9b5b32dc4fc2df", "613a52844397e2a38fe157e8"]}