{"_id": "6141172e3b96e553f63e0a33", "molecule": {"@module": "pymatgen.core.structure", "@class": "Molecule", "charge": 0, "spin_multiplicity": 1, "sites": [{"name": "F", "species": [{"element": "F", "occu": 1}], "xyz": [4.319865, 0.240246, 2.738211], "properties": {}}, {"name": "F", "species": [{"element": "F", "occu": 1}], "xyz": [4.714247, -1.074313, 4.482443], "properties": {}}, {"name": "O", "species": [{"element": "O", "occu": 1}], "xyz": [2.899871, -2.472459, 1.030085], "properties": {}}, {"name": "C", "species": [{"element": "C", "occu": 1}], "xyz": [2.445191, -2.660804, -0.318522], "properties": {}}, {"name": "C", "species": [{"element": "C", "occu": 1}], "xyz": [2.172053, -1.522901, 1.795753], "properties": {}}, {"name": "C", "species": [{"element": "C", "occu": 1}], "xyz": [2.772456, -1.500935, 3.196836], "properties": {}}, {"name": "C", "species": [{"element": "C", "occu": 1}], "xyz": [2.858338, -1.494659, -1.221015], "properties": {}}, {"name": "C", "species": [{"element": "C", "occu": 1}], "xyz": [3.037266, -3.986197, -0.784556], "properties": {}}, {"name": "C", "species": [{"element": "C", "occu": 1}], "xyz": [4.220529, -1.063073, 3.192776], "properties": {}}, {"name": "H", "species": [{"element": "H", "occu": 1}], "xyz": [1.344084, -2.739754, -0.304051], "properties": {}}, {"name": "H", "species": [{"element": "H", "occu": 1}], "xyz": [1.109184, -1.810139, 1.849857], "properties": {}}, {"name": "H", "species": [{"element": "H", "occu": 1}], "xyz": [2.22977, -0.520199, 1.349164], "properties": {}}, {"name": "H", "species": [{"element": "H", "occu": 1}], "xyz": [2.722855, -2.502494, 3.638079], "properties": {}}, {"name": "H", "species": [{"element": "H", "occu": 1}], "xyz": [2.211467, -0.811481, 3.838524], "properties": {}}, {"name": "H", "species": [{"element": "H", "occu": 1}], "xyz": [3.949957, -1.393299, -1.225869], "properties": {}}, {"name": "H", "species": [{"element": "H", "occu": 1}], "xyz": [2.520681, -1.671891, -2.249092], "properties": {}}, {"name": "H", "species": [{"element": "H", "occu": 1}], "xyz": [2.426845, -0.544497, -0.888875], "properties": {}}, {"name": "H", "species": [{"element": "H", "occu": 1}], "xyz": [2.725769, -4.799976, -0.121574], "properties": {}}, {"name": "H", "species": [{"element": "H", "occu": 1}], "xyz": [2.710107, -4.217375, -1.804731], "properties": {}}, {"name": "H", "species": [{"element": "H", "occu": 1}], "xyz": [4.132359, -3.933577, -0.774718], "properties": {}}, {"name": "H", "species": [{"element": "H", "occu": 1}], "xyz": [4.878516, -1.676794, 2.574093], "properties": {}}]}, "smiles": "FC(F)CCOC(C)C", "inchi": "InChI=1S/C6H12F2O/c1-5(2)9-4-3-6(7)8/h5-6H,3-4H2,1-2H3", "formula_alphabetical": "C6 F2 H12 O1", "chemsys": "C-F-H-O", "energy": -510.798223413, "esp": {"1": ["F", -0.270913], "2": ["F", -0.294022], "3": ["O", -0.504887], "4": ["C", 0.635053], "5": ["C", 0.164655], "6": ["C", -0.247385], "7": ["C", -0.547527], "8": ["C", -0.471197], "9": ["C", 0.528584], "10": ["H", -0.051513], "11": ["H", 0.031289], "12": ["H", 0.025491], "13": ["H", 0.101317], "14": ["H", 0.105629], "15": ["H", 0.150006], "16": ["H", 0.119985], "17": ["H", 0.131553], "18": ["H", 0.111728], "19": ["H", 0.110347], "20": ["H", 0.126206], "21": ["H", 0.045602]}, "dipole_moment": {"X": -2.2403, "Y": -1.2601, "Z": -2.0301, "Tot": 3.2754}, "functional": "B3LYP", "basis": "6-31+G*", "phase": "gas", "tag": "lis", "state": "successful", "wall_time (s)": 8.226174840005115, "version": "0.0.1", "gauss_version": "ES64L-G16RevC.01", "last_updated": "2021-09-14 21:42:05.866000", "polarizability": 77.86, "fluorinated-solvent": "146417114", "run_ids": ["614116fe7b964d7ebdb611da", "6141171b929d6b5130def31d"]}