{"_id": "613a583e93d266a6b152ef39", "molecule": {"@module": "pymatgen.core.structure", "@class": "Molecule", "charge": 0, "spin_multiplicity": 1, "sites": [{"name": "F", "species": [{"element": "F", "occu": 1}], "xyz": [1.001629, -0.25104, 0.208068], "properties": {}}, {"name": "F", "species": [{"element": "F", "occu": 1}], "xyz": [2.529501, -0.622742, -1.315015], "properties": {}}, {"name": "F", "species": [{"element": "F", "occu": 1}], "xyz": [2.379812, 3.848353, 0.88593], "properties": {}}, {"name": "O", "species": [{"element": "O", "occu": 1}], "xyz": [2.820984, 1.083461, 0.132444], "properties": {}}, {"name": "C", "species": [{"element": "C", "occu": 1}], "xyz": [2.372208, -0.192356, -0.001103], "properties": {}}, {"name": "C", "species": [{"element": "C", "occu": 1}], "xyz": [2.207524, 2.076747, -0.712063], "properties": {}}, {"name": "C", "species": [{"element": "C", "occu": 1}], "xyz": [3.08594, -1.124663, 0.943198], "properties": {}}, {"name": "C", "species": [{"element": "C", "occu": 1}], "xyz": [2.820036, 3.413056, -0.371301], "properties": {}}, {"name": "H", "species": [{"element": "H", "occu": 1}], "xyz": [2.405752, 1.838997, -1.764422], "properties": {}}, {"name": "H", "species": [{"element": "H", "occu": 1}], "xyz": [1.12677, 2.09683, -0.539653], "properties": {}}, {"name": "H", "species": [{"element": "H", "occu": 1}], "xyz": [2.911503, -0.798607, 1.971115], "properties": {}}, {"name": "H", "species": [{"element": "H", "occu": 1}], "xyz": [2.699961, -2.137042, 0.805222], "properties": {}}, {"name": "H", "species": [{"element": "H", "occu": 1}], "xyz": [4.157286, -1.105282, 0.730444], "properties": {}}, {"name": "H", "species": [{"element": "H", "occu": 1}], "xyz": [3.912642, 3.349321, -0.335994], "properties": {}}, {"name": "H", "species": [{"element": "H", "occu": 1}], "xyz": [2.511324, 4.163398, -1.10839], "properties": {}}]}, "smiles": "FC(F)(OCCF)C", "inchi": "InChI=1S/C4H7F3O/c1-4(6,7)8-3-2-5/h2-3H2,1H3", "formula_alphabetical": "C4 F3 H7 O1", "chemsys": "C-F-H-O", "energy": -531.423358422, "esp": {"1": ["F", -0.273714], "2": ["F", -0.276712], "3": ["F", -0.27923], "4": ["O", -0.374111], "5": ["C", 0.742604], "6": ["C", 0.034026], "7": ["C", -0.573691], "8": ["C", 0.207794], "9": ["H", 0.062882], "10": ["H", 0.104226], "11": ["H", 0.179522], "12": ["H", 0.180532], "13": ["H", 0.170607], "14": ["H", 0.058542], "15": ["H", 0.036723]}, "dipole_moment": {"X": 1.3018, "Y": 0.0313, "Z": -1.1377, "Tot": 1.7292}, "functional": "B3LYP", "basis": "6-31+G*", "phase": "gas", "tag": "lis", "state": "successful", "wall_time (s)": 6.000670689998515, "version": "0.0.1", "gauss_version": "ES64L-G16RevC.01", "last_updated": "2021-09-09 18:53:50.511000", "polarizability": 54.85, "fluorinated-solvent": "20789479", "run_ids": ["613a4b0e067bf7e600e67d17", "613a583565cf5152223073d8"]}