{"_id": "613a4c43fab88bf69fbafc2e", "molecule": {"@module": "pymatgen.core.structure", "@class": "Molecule", "charge": 0, "spin_multiplicity": 1, "sites": [{"name": "F", "species": [{"element": "F", "occu": 1}], "xyz": [4.866876, -0.248719, -0.8257], "properties": {}}, {"name": "F", "species": [{"element": "F", "occu": 1}], "xyz": [4.657666, 1.793119, -1.660289], "properties": {}}, {"name": "O", "species": [{"element": "O", "occu": 1}], "xyz": [2.365547, 2.121105, 0.035779], "properties": {}}, {"name": "C", "species": [{"element": "C", "occu": 1}], "xyz": [0.945782, 2.3598, -0.041724], "properties": {}}, {"name": "C", "species": [{"element": "C", "occu": 1}], "xyz": [2.83478, 0.878237, -0.441348], "properties": {}}, {"name": "C", "species": [{"element": "C", "occu": 1}], "xyz": [0.480646, 2.552629, -1.48767], "properties": {}}, {"name": "C", "species": [{"element": "C", "occu": 1}], "xyz": [0.13872, 1.294742, 0.704252], "properties": {}}, {"name": "C", "species": [{"element": "C", "occu": 1}], "xyz": [4.339259, 1.002906, -0.582858], "properties": {}}, {"name": "H", "species": [{"element": "H", "occu": 1}], "xyz": [0.843023, 3.313741, 0.487236], "properties": {}}, {"name": "H", "species": [{"element": "H", "occu": 1}], "xyz": [2.425467, 0.612034, -1.425427], "properties": {}}, {"name": "H", "species": [{"element": "H", "occu": 1}], "xyz": [2.622572, 0.06038, 0.262587], "properties": {}}, {"name": "H", "species": [{"element": "H", "occu": 1}], "xyz": [0.499589, 1.614817, -2.05539], "properties": {}}, {"name": "H", "species": [{"element": "H", "occu": 1}], "xyz": [-0.551435, 2.922516, -1.500567], "properties": {}}, {"name": "H", "species": [{"element": "H", "occu": 1}], "xyz": [1.11879, 3.281257, -1.998056], "properties": {}}, {"name": "H", "species": [{"element": "H", "occu": 1}], "xyz": [0.527643, 1.155064, 1.719024], "properties": {}}, {"name": "H", "species": [{"element": "H", "occu": 1}], "xyz": [-0.910272, 1.604296, 0.776572], "properties": {}}, {"name": "H", "species": [{"element": "H", "occu": 1}], "xyz": [0.162113, 0.329115, 0.184491], "properties": {}}, {"name": "H", "species": [{"element": "H", "occu": 1}], "xyz": [4.831242, 1.422322, 0.299224], "properties": {}}]}, "smiles": "FC(F)COC(C)C", "inchi": "InChI=1S/C5H10F2O/c1-4(2)8-3-5(6)7/h4-5H,3H2,1-2H3", "formula_alphabetical": "C5 F2 H10 O1", "chemsys": "C-F-H-O", "energy": -471.475088754, "esp": {"1": ["F", -0.308095], "2": ["F", -0.268035], "3": ["O", -0.575515], "4": ["C", 0.63471], "5": ["C", 0.049576], "6": ["C", -0.432125], "7": ["C", -0.464712], "8": ["C", 0.5453], "9": ["H", -0.020517], "10": ["H", 0.07695], "11": ["H", 0.052171], "12": ["H", 0.111103], "13": ["H", 0.089605], "14": ["H", 0.119206], "15": ["H", 0.126531], "16": ["H", 0.103136], "17": ["H", 0.110393], "18": ["H", 0.05032]}, "dipole_moment": {"X": -2.8265, "Y": -0.0436, "Z": 1.2144, "Tot": 3.0766}, "functional": "B3LYP", "basis": "6-31+G*", "phase": "gas", "tag": "lis", "state": "successful", "wall_time (s)": 7.064104082994163, "version": "0.0.1", "gauss_version": "ES64L-G16RevC.01", "last_updated": "2021-09-09 18:02:43.587000", "polarizability": 65.79, "fluorinated-solvent": "21068633", "run_ids": ["613a4975395e1aa6fb719cc7", "613a4b5312f593e5aa411837"]}