{"_id": "613a4ede06942a741848a595", "molecule": {"@module": "pymatgen.core.structure", "@class": "Molecule", "charge": 0, "spin_multiplicity": 1, "sites": [{"name": "F", "species": [{"element": "F", "occu": 1}], "xyz": [0.791498, 0.056602, 0.023024], "properties": {}}, {"name": "F", "species": [{"element": "F", "occu": 1}], "xyz": [2.498632, 1.445538, -0.162802], "properties": {}}, {"name": "F", "species": [{"element": "F", "occu": 1}], "xyz": [1.90945, -1.016275, 4.009207], "properties": {}}, {"name": "F", "species": [{"element": "F", "occu": 1}], "xyz": [3.703444, 0.210337, 3.934503], "properties": {}}, {"name": "F", "species": [{"element": "F", "occu": 1}], "xyz": [1.78543, 1.118308, 4.461296], "properties": {}}, {"name": "F", "species": [{"element": "F", "occu": 1}], "xyz": [4.21337, -2.823051, -2.086056], "properties": {}}, {"name": "F", "species": [{"element": "F", "occu": 1}], "xyz": [2.578474, -4.135797, -1.46835], "properties": {}}, {"name": "F", "species": [{"element": "F", "occu": 1}], "xyz": [2.267059, -2.649212, -3.039971], "properties": {}}, {"name": "O", "species": [{"element": "O", "occu": 1}], "xyz": [2.101311, 0.533514, 2.389916], "properties": {}}, {"name": "O", "species": [{"element": "O", "occu": 1}], "xyz": [2.480671, -2.041364, -0.886547], "properties": {}}, {"name": "C", "species": [{"element": "C", "occu": 1}], "xyz": [2.158359, 0.129707, 0.04737], "properties": {}}, {"name": "C", "species": [{"element": "C", "occu": 1}], "xyz": [2.672191, -0.333497, 1.40226], "properties": {}}, {"name": "C", "species": [{"element": "C", "occu": 1}], "xyz": [2.728918, -0.646879, -1.134374], "properties": {}}, {"name": "C", "species": [{"element": "C", "occu": 1}], "xyz": [2.369138, 0.216226, 3.670876], "properties": {}}, {"name": "C", "species": [{"element": "C", "occu": 1}], "xyz": [2.876548, -2.894346, -1.855022], "properties": {}}, {"name": "H", "species": [{"element": "H", "occu": 1}], "xyz": [2.360519, -1.368044, 1.567245], "properties": {}}, {"name": "H", "species": [{"element": "H", "occu": 1}], "xyz": [3.764543, -0.260499, 1.420565], "properties": {}}, {"name": "H", "species": [{"element": "H", "occu": 1}], "xyz": [2.217124, -0.315518, -2.0421], "properties": {}}, {"name": "H", "species": [{"element": "H", "occu": 1}], "xyz": [3.803959, -0.460499, -1.214628], "properties": {}}]}, "smiles": "FC(F)(COC(F)(F)F)COC(F)(F)F", "inchi": "InChI=1S/C5H4F8O2/c6-3(7,1-14-4(8,9)10)2-15-5(11,12)13/h1-2H2", "formula_alphabetical": "C5 F8 H4 O2", "chemsys": "C-F-H-O", "energy": -1142.18856192, "esp": {"1": ["F", -0.206871], "2": ["F", -0.240097], "3": ["F", -0.191834], "4": ["F", -0.202733], "5": ["F", -0.165618], "6": ["F", -0.202286], "7": ["F", -0.173342], "8": ["F", -0.18786], "9": ["O", -0.318538], "10": ["O", -0.300818], "11": ["C", 0.524228], "12": ["C", 0.004975], "13": ["C", -0.213722], "14": ["C", 0.65568], "15": ["C", 0.676809], "16": ["H", 0.099655], "17": ["H", 0.11073], "18": ["H", 0.179771], "19": ["H", 0.151872]}, "dipole_moment": {"X": 1.7893, "Y": -0.3079, "Z": -1.5704, "Tot": 2.4005}, "functional": "B3LYP", "basis": "6-31+G*", "phase": "gas", "tag": "lis", "state": "successful", "wall_time (s)": 11.985721273929812, "version": "0.0.1", "gauss_version": "ES64L-G16RevC.01", "last_updated": "2021-09-09 18:13:50.345000", "polarizability": 74.43, "fluorinated-solvent": "14915512", "run_ids": ["613a4a4ecd794093df30ea38", "613a4ed56494705954f73e40"]}