{"_id": "613a543c02e3180732d09ee4", "molecule": {"@module": "pymatgen.core.structure", "@class": "Molecule", "charge": 0, "spin_multiplicity": 1, "sites": [{"name": "F", "species": [{"element": "F", "occu": 1}], "xyz": [2.546094, -0.468438, -3.166848], "properties": {}}, {"name": "F", "species": [{"element": "F", "occu": 1}], "xyz": [0.868972, 0.012897, -1.838416], "properties": {}}, {"name": "O", "species": [{"element": "O", "occu": 1}], "xyz": [2.788424, -0.776678, -0.938323], "properties": {}}, {"name": "C", "species": [{"element": "C", "occu": 1}], "xyz": [2.87378, -2.792473, 0.36569], "properties": {}}, {"name": "C", "species": [{"element": "C", "occu": 1}], "xyz": [2.190826, -2.179727, 1.599785], "properties": {}}, {"name": "C", "species": [{"element": "C", "occu": 1}], "xyz": [2.441294, -2.190752, -0.963149], "properties": {}}, {"name": "C", "species": [{"element": "C", "occu": 1}], "xyz": [0.664995, -2.339863, 1.616464], "properties": {}}, {"name": "C", "species": [{"element": "C", "occu": 1}], "xyz": [2.250882, -0.004361, -1.899981], "properties": {}}, {"name": "H", "species": [{"element": "H", "occu": 1}], "xyz": [2.659316, -3.87009, 0.317471], "properties": {}}, {"name": "H", "species": [{"element": "H", "occu": 1}], "xyz": [3.962989, -2.689575, 0.457134], "properties": {}}, {"name": "H", "species": [{"element": "H", "occu": 1}], "xyz": [2.615868, -2.654054, 2.49448], "properties": {}}, {"name": "H", "species": [{"element": "H", "occu": 1}], "xyz": [2.449861, -1.115431, 1.65873], "properties": {}}, {"name": "H", "species": [{"element": "H", "occu": 1}], "xyz": [1.363426, -2.288824, -1.122854], "properties": {}}, {"name": "H", "species": [{"element": "H", "occu": 1}], "xyz": [2.966425, -2.658775, -1.802179], "properties": {}}, {"name": "H", "species": [{"element": "H", "occu": 1}], "xyz": [0.37479, -3.39446, 1.516543], "properties": {}}, {"name": "H", "species": [{"element": "H", "occu": 1}], "xyz": [0.243873, -1.966529, 2.557302], "properties": {}}, {"name": "H", "species": [{"element": "H", "occu": 1}], "xyz": [0.188042, -1.781257, 0.802611], "properties": {}}, {"name": "H", "species": [{"element": "H", "occu": 1}], "xyz": [2.617942, 1.017986, -1.802402], "properties": {}}]}, "smiles": "FC(F)OCCCC", "inchi": "InChI=1S/C5H10F2O/c1-2-3-4-8-5(6)7/h5H,2-4H2,1H3", "formula_alphabetical": "C5 F2 H10 O1", "chemsys": "C-F-H-O", "energy": -471.490271452, "esp": {"1": ["F", -0.258411], "2": ["F", -0.250919], "3": ["O", -0.389754], "4": ["C", -0.26613], "5": ["C", 0.307116], "6": ["C", 0.187467], "7": ["C", -0.276165], "8": ["C", 0.507105], "9": ["H", 0.064594], "10": ["H", 0.075636], "11": ["H", -0.043924], "12": ["H", -0.048383], "13": ["H", 0.049397], "14": ["H", 0.061864], "15": ["H", 0.055819], "16": ["H", 0.053687], "17": ["H", 0.079965], "18": ["H", 0.091034]}, "dipole_moment": {"X": 0.678, "Y": -0.8509, "Z": 1.3032, "Tot": 1.6977}, "functional": "B3LYP", "basis": "6-31+G*", "phase": "gas", "tag": "lis", "state": "successful", "wall_time (s)": 8.505426033050753, "version": "0.0.1", "gauss_version": "ES64L-G16RevC.01", "last_updated": "2021-09-09 18:36:44.575000", "polarizability": 65.54, "fluorinated-solvent": "23221702", "run_ids": ["613a4acf107e8630a131c5a4", "613a543652905886f7824141"]}