{"_id": "61410f0fa7c86130a059cfa6", "molecule": {"@module": "pymatgen.core.structure", "@class": "Molecule", "charge": 0, "spin_multiplicity": 1, "sites": [{"name": "F", "species": [{"element": "F", "occu": 1}], "xyz": [1.069638, -0.373801, 0.348402], "properties": {}}, {"name": "F", "species": [{"element": "F", "occu": 1}], "xyz": [3.063852, -1.251679, 0.737055], "properties": {}}, {"name": "O", "species": [{"element": "O", "occu": 1}], "xyz": [4.104056, 0.360685, -1.464475], "properties": {}}, {"name": "O", "species": [{"element": "O", "occu": 1}], "xyz": [2.179546, 2.200225, 0.673824], "properties": {}}, {"name": "C", "species": [{"element": "C", "occu": 1}], "xyz": [2.421957, -0.123514, 0.242514], "properties": {}}, {"name": "C", "species": [{"element": "C", "occu": 1}], "xyz": [2.743853, 0.057047, -1.238919], "properties": {}}, {"name": "C", "species": [{"element": "C", "occu": 1}], "xyz": [2.810964, 1.032649, 1.148901], "properties": {}}, {"name": "C", "species": [{"element": "C", "occu": 1}], "xyz": [4.974078, -0.766786, -1.629596], "properties": {}}, {"name": "C", "species": [{"element": "C", "occu": 1}], "xyz": [6.356799, -0.235642, -1.966605], "properties": {}}, {"name": "C", "species": [{"element": "C", "occu": 1}], "xyz": [2.528254, 3.357893, 1.415308], "properties": {}}, {"name": "H", "species": [{"element": "H", "occu": 1}], "xyz": [2.426967, -0.852374, -1.769902], "properties": {}}, {"name": "H", "species": [{"element": "H", "occu": 1}], "xyz": [2.155339, 0.906043, -1.596137], "properties": {}}, {"name": "H", "species": [{"element": "H", "occu": 1}], "xyz": [2.495386, 0.786632, 2.174773], "properties": {}}, {"name": "H", "species": [{"element": "H", "occu": 1}], "xyz": [3.906407, 1.12844, 1.120661], "properties": {}}, {"name": "H", "species": [{"element": "H", "occu": 1}], "xyz": [4.997113, -1.369124, -0.712295], "properties": {}}, {"name": "H", "species": [{"element": "H", "occu": 1}], "xyz": [4.590408, -1.403549, -2.443167], "properties": {}}, {"name": "H", "species": [{"element": "H", "occu": 1}], "xyz": [6.734472, 0.395333, -1.154462], "properties": {}}, {"name": "H", "species": [{"element": "H", "occu": 1}], "xyz": [7.055848, -1.067427, -2.113492], "properties": {}}, {"name": "H", "species": [{"element": "H", "occu": 1}], "xyz": [6.327126, 0.363862, -2.882841], "properties": {}}, {"name": "H", "species": [{"element": "H", "occu": 1}], "xyz": [2.23112, 3.260474, 2.471397], "properties": {}}, {"name": "H", "species": [{"element": "H", "occu": 1}], "xyz": [3.610909, 3.553067, 1.36394], "properties": {}}, {"name": "H", "species": [{"element": "H", "occu": 1}], "xyz": [1.988947, 4.194854, 0.965668], "properties": {}}]}, "smiles": "FC(F)(COCC)COC", "inchi": "InChI=1S/C6H12F2O2/c1-3-10-5-6(7,8)4-9-2/h3-5H2,1-2H3", "formula_alphabetical": "C6 F2 H12 O2", "chemsys": "C-F-H-O", "energy": -585.999143726, "esp": {"1": ["F", -0.246981], "2": ["F", -0.252815], "3": ["O", -0.417477], "4": ["O", -0.271127], "5": ["C", 0.40969], "6": ["C", 0.057905], "7": ["C", -0.059981], "8": ["C", 0.374153], "9": ["C", -0.340999], "10": ["C", -0.118885], "11": ["H", 0.069603], "12": ["H", 0.071466], "13": ["H", 0.114438], "14": ["H", 0.105678], "15": ["H", -0.016148], "16": ["H", -0.015037], "17": ["H", 0.097872], "18": ["H", 0.076884], "19": ["H", 0.092115], "20": ["H", 0.07911], "21": ["H", 0.078582], "22": ["H", 0.111953]}, "dipole_moment": {"X": 1.7407, "Y": 0.9508, "Z": 0.2096, "Tot": 1.9945}, "functional": "B3LYP", "basis": "6-31+G*", "phase": "gas", "tag": "lis", "state": "successful", "wall_time (s)": 9.017997394083068, "version": "0.0.1", "gauss_version": "ES64L-G16RevC.01", "last_updated": "2021-09-14 21:07:27.177000", "polarizability": 82.2, "fluorinated-solvent": "123826196", "run_ids": ["61410ec126497db437765a02", "61410ef47ddc9f8d2d335083"]}