{"_id": "61411a1468e163ac94f29836", "molecule": {"@module": "pymatgen.core.structure", "@class": "Molecule", "charge": 0, "spin_multiplicity": 2, "sites": [{"name": "F", "species": [{"element": "F", "occu": 1}], "xyz": [2.249104, -1.403564, -3.275362], "properties": {}}, {"name": "F", "species": [{"element": "F", "occu": 1}], "xyz": [3.230646, 0.509133, -2.875738], "properties": {}}, {"name": "F", "species": [{"element": "F", "occu": 1}], "xyz": [1.14769, 0.197707, -2.287024], "properties": {}}, {"name": "F", "species": [{"element": "F", "occu": 1}], "xyz": [2.5594, -0.629682, 2.072161], "properties": {}}, {"name": "F", "species": [{"element": "F", "occu": 1}], "xyz": [2.938928, -2.667981, 2.792973], "properties": {}}, {"name": "F", "species": [{"element": "F", "occu": 1}], "xyz": [4.293626, -1.722786, 1.349932], "properties": {}}, {"name": "O", "species": [{"element": "O", "occu": 1}], "xyz": [1.91636, -1.828929, -0.543614], "properties": {}}, {"name": "C", "species": [{"element": "C", "occu": 1}], "xyz": [2.862272, -0.881236, -1.033208], "properties": {}}, {"name": "C", "species": [{"element": "C", "occu": 1}], "xyz": [2.353238, -0.398671, -2.382119], "properties": {}}, {"name": "C", "species": [{"element": "C", "occu": 1}], "xyz": [2.15993, -2.477306, 0.614686], "properties": {}}, {"name": "C", "species": [{"element": "C", "occu": 1}], "xyz": [2.981351, -1.88039, 1.700175], "properties": {}}, {"name": "H", "species": [{"element": "H", "occu": 1}], "xyz": [3.844497, -1.342178, -1.173519], "properties": {}}, {"name": "H", "species": [{"element": "H", "occu": 1}], "xyz": [2.94586, -0.018188, -0.365627], "properties": {}}, {"name": "H", "species": [{"element": "H", "occu": 1}], "xyz": [1.403699, -3.206759, 0.872526], "properties": {}}]}, "smiles": "FC(F)(F)CO[CH]C(F)(F)F", "inchi": "InChI=1S/C4H3F6O/c5-3(6,7)1-11-2-4(8,9)10/h1H,2H2", "formula_alphabetical": "C4 F6 H3 O1", "chemsys": "C-F-H-O", "energy": -828.489803517, "esp": {"1": ["F", -0.210974], "2": ["F", -0.228967], "3": ["F", -0.203924], "4": ["F", -0.202563], "5": ["F", -0.20773], "6": ["F", -0.223682], "7": ["O", -0.146369], "8": ["C", -0.225088], "9": ["C", 0.677672], "10": ["C", -0.191123], "11": ["C", 0.635655], "12": ["H", 0.177631], "13": ["H", 0.166358], "14": ["H", 0.183104]}, "dipole_moment": {"X": 0.2136, "Y": -0.698, "Z": 0.3058, "Tot": 0.7914}, "functional": "B3LYP", "basis": "6-31+G*", "phase": "gas", "tag": "lis", "state": "successful", "wall_time (s)": 10.454167486983351, "version": "0.0.1", "gauss_version": "ES64L-G16RevC.01", "last_updated": "2021-09-14 21:54:28.618000", "polarizability": 57.47, "fluorinated-solvent": "101938351", "run_ids": ["614119f9017b81ec77ea89e5", "61411a10de3df897890a4a01"]}