{"_id": "61412dabde233f47147f32c4", "molecule": {"@module": "pymatgen.core.structure", "@class": "Molecule", "charge": 0, "spin_multiplicity": 2, "sites": [{"name": "F", "species": [{"element": "F", "occu": 1}], "xyz": [0.854955, -0.025563, 0.136276], "properties": {}}, {"name": "F", "species": [{"element": "F", "occu": 1}], "xyz": [2.651597, -0.378513, -1.05937], "properties": {}}, {"name": "F", "species": [{"element": "F", "occu": 1}], "xyz": [2.244378, -0.701558, 2.447324], "properties": {}}, {"name": "F", "species": [{"element": "F", "occu": 1}], "xyz": [2.320949, -2.251577, 0.874146], "properties": {}}, {"name": "O", "species": [{"element": "O", "occu": 1}], "xyz": [2.688238, 1.237072, 0.514851], "properties": {}}, {"name": "C", "species": [{"element": "C", "occu": 1}], "xyz": [2.221213, 0.00853, 0.189038], "properties": {}}, {"name": "C", "species": [{"element": "C", "occu": 1}], "xyz": [2.749226, -1.007973, 1.221579], "properties": {}}, {"name": "C", "species": [{"element": "C", "occu": 1}], "xyz": [2.247962, 2.322504, -0.338843], "properties": {}}, {"name": "C", "species": [{"element": "C", "occu": 1}], "xyz": [2.901047, 3.553817, 0.048627], "properties": {}}, {"name": "C", "species": [{"element": "C", "occu": 1}], "xyz": [3.699786, 4.53576, 0.087739], "properties": {}}, {"name": "H", "species": [{"element": "H", "occu": 1}], "xyz": [3.841746, -0.99545, 1.262835], "properties": {}}, {"name": "H", "species": [{"element": "H", "occu": 1}], "xyz": [2.475405, 2.088778, -1.388294], "properties": {}}, {"name": "H", "species": [{"element": "H", "occu": 1}], "xyz": [1.158477, 2.437273, -0.247536], "properties": {}}]}, "smiles": "FC(F)(OCC#[C])C(F)F", "inchi": "InChI=1S/C5H3F4O/c1-2-3-10-5(8,9)4(6)7/h4H,3H2", "formula_alphabetical": "C5 F4 H3 O1", "chemsys": "C-F-H-O", "energy": -666.758565452, "esp": {"1": ["F", -0.165474], "2": ["F", -0.19514], "3": ["F", -0.174249], "4": ["F", -0.184706], "5": ["O", -0.291876], "6": ["C", 0.461522], "7": ["C", 0.241477], "8": ["C", -0.265251], "9": ["C", 0.347539], "10": ["C", -0.294948], "11": ["H", 0.130087], "12": ["H", 0.188119], "13": ["H", 0.202899]}, "dipole_moment": {"X": -0.3645, "Y": 0.2366, "Z": -0.8591, "Tot": 0.9628}, "functional": "B3LYP", "basis": "6-31+G*", "phase": "gas", "tag": "lis", "state": "successful", "wall_time (s)": 15.28189389500767, "version": "0.0.1", "gauss_version": "ES64L-G16RevC.01", "last_updated": "2021-09-14 23:18:03.328000", "polarizability": 73.62, "fluorinated-solvent": "101084693", "run_ids": ["61412d890d3646e7165f64c8", "61412da40945a9a84d53d167"]}