{"_id": "613a4eef5ec39ad9ace5437a", "molecule": {"@module": "pymatgen.core.structure", "@class": "Molecule", "charge": 0, "spin_multiplicity": 1, "sites": [{"name": "F", "species": [{"element": "F", "occu": 1}], "xyz": [4.708629, 1.337515, -2.059377], "properties": {}}, {"name": "F", "species": [{"element": "F", "occu": 1}], "xyz": [4.55066, 1.430366, 0.13825], "properties": {}}, {"name": "F", "species": [{"element": "F", "occu": 1}], "xyz": [0.764219, 4.126417, -0.241805], "properties": {}}, {"name": "F", "species": [{"element": "F", "occu": 1}], "xyz": [0.921115, 4.039253, -2.439745], "properties": {}}, {"name": "F", "species": [{"element": "F", "occu": 1}], "xyz": [6.194923, -0.561558, -0.766074], "properties": {}}, {"name": "F", "species": [{"element": "F", "occu": 1}], "xyz": [4.411794, -1.328546, 0.234636], "properties": {}}, {"name": "F", "species": [{"element": "F", "occu": 1}], "xyz": [4.567828, -1.420887, -1.942213], "properties": {}}, {"name": "F", "species": [{"element": "F", "occu": 1}], "xyz": [-1.506764, 4.927253, -1.541352], "properties": {}}, {"name": "F", "species": [{"element": "F", "occu": 1}], "xyz": [-1.639369, 3.006018, -2.57113], "properties": {}}, {"name": "F", "species": [{"element": "F", "occu": 1}], "xyz": [-1.794597, 3.09153, -0.393944], "properties": {}}, {"name": "O", "species": [{"element": "O", "occu": 1}], "xyz": [2.167996, 1.934846, -1.160194], "properties": {}}, {"name": "C", "species": [{"element": "C", "occu": 1}], "xyz": [2.669194, 0.621779, -1.069326], "properties": {}}, {"name": "C", "species": [{"element": "C", "occu": 1}], "xyz": [0.764045, 1.979562, -1.262906], "properties": {}}, {"name": "C", "species": [{"element": "C", "occu": 1}], "xyz": [4.187807, 0.717257, -0.964147], "properties": {}}, {"name": "C", "species": [{"element": "C", "occu": 1}], "xyz": [0.357534, 3.447029, -1.350188], "properties": {}}, {"name": "C", "species": [{"element": "C", "occu": 1}], "xyz": [4.865879, -0.675727, -0.856484], "properties": {}}, {"name": "C", "species": [{"element": "C", "occu": 1}], "xyz": [-1.179847, 3.632963, -1.467203], "properties": {}}, {"name": "H", "species": [{"element": "H", "occu": 1}], "xyz": [2.418865, 0.029374, -1.961428], "properties": {}}, {"name": "H", "species": [{"element": "H", "occu": 1}], "xyz": [2.290505, 0.104004, -0.176038], "properties": {}}, {"name": "H", "species": [{"element": "H", "occu": 1}], "xyz": [0.406868, 1.465234, -2.166984], "properties": {}}, {"name": "H", "species": [{"element": "H", "occu": 1}], "xyz": [0.278495, 1.536048, -0.381439], "properties": {}}]}, "smiles": "FC(F)(COCC(F)(F)C(F)(F)F)C(F)(F)F", "inchi": "InChI=1S/C6H4F10O/c7-3(8,5(11,12)13)1-17-2-4(9,10)6(14,15)16/h1-2H2", "formula_alphabetical": "C6 F10 H4 O1", "chemsys": "C-F-H-O", "energy": -1304.73944067, "esp": {"1": ["F", -0.157278], "2": ["F", -0.157734], "3": ["F", -0.154708], "4": ["F", -0.1531], "5": ["F", -0.135363], "6": ["F", -0.17198], "7": ["F", -0.170676], "8": ["F", -0.141847], "9": ["F", -0.180267], "10": ["F", -0.176658], "11": ["O", -0.119435], "12": ["C", -0.150448], "13": ["C", -0.159386], "14": ["C", 0.258936], "15": ["C", 0.238058], "16": ["C", 0.476537], "17": ["C", 0.507636], "18": ["H", 0.133779], "19": ["H", 0.134844], "20": ["H", 0.140913], "21": ["H", 0.138178]}, "dipole_moment": {"X": -2.0637, "Y": -2.8999, "Z": -0.0315, "Tot": 3.5594}, "functional": "B3LYP", "basis": "6-31+G*", "phase": "gas", "tag": "lis", "state": "successful", "wall_time (s)": 14.712061168975197, "version": "0.0.1", "gauss_version": "ES64L-G16RevC.01", "last_updated": "2021-09-09 18:14:06.754000", "polarizability": 84.02, "fluorinated-solvent": "21254493", "run_ids": ["613a4a4efe80ef5e06261fee", "613a4ee90773c7fe5b36b8ed"]}