{"_id": "613a563deb17265d8816dc6a", "molecule": {"@module": "pymatgen.core.structure", "@class": "Molecule", "charge": 0, "spin_multiplicity": 1, "sites": [{"name": "F", "species": [{"element": "F", "occu": 1}], "xyz": [1.054943, 0.183867, 0.295553], "properties": {}}, {"name": "F", "species": [{"element": "F", "occu": 1}], "xyz": [2.92301, 0.622228, 1.334788], "properties": {}}, {"name": "F", "species": [{"element": "F", "occu": 1}], "xyz": [2.22407, 0.689778, -2.153562], "properties": {}}, {"name": "F", "species": [{"element": "F", "occu": 1}], "xyz": [2.309098, 2.344492, -0.733506], "properties": {}}, {"name": "F", "species": [{"element": "F", "occu": 1}], "xyz": [2.346472, -3.744895, -0.83091], "properties": {}}, {"name": "F", "species": [{"element": "F", "occu": 1}], "xyz": [4.342419, -3.444374, -0.006708], "properties": {}}, {"name": "F", "species": [{"element": "F", "occu": 1}], "xyz": [2.793837, -4.397558, 1.207812], "properties": {}}, {"name": "F", "species": [{"element": "F", "occu": 1}], "xyz": [6.60369, 2.450421, -0.803061], "properties": {}}, {"name": "F", "species": [{"element": "F", "occu": 1}], "xyz": [6.72662, 0.69855, -2.095051], "properties": {}}, {"name": "F", "species": [{"element": "F", "occu": 1}], "xyz": [6.751906, 2.702289, -2.970338], "properties": {}}, {"name": "O", "species": [{"element": "O", "occu": 1}], "xyz": [2.859025, -1.098317, -0.119271], "properties": {}}, {"name": "O", "species": [{"element": "O", "occu": 1}], "xyz": [4.16801, 1.127841, -1.100973], "properties": {}}, {"name": "C", "species": [{"element": "C", "occu": 1}], "xyz": [2.415481, 0.145908, 0.158041], "properties": {}}, {"name": "C", "species": [{"element": "C", "occu": 1}], "xyz": [2.822554, 1.10403, -0.996259], "properties": {}}, {"name": "C", "species": [{"element": "C", "occu": 1}], "xyz": [2.586106, -2.096289, 0.869917], "properties": {}}, {"name": "C", "species": [{"element": "C", "occu": 1}], "xyz": [4.701342, 1.950036, -2.144259], "properties": {}}, {"name": "C", "species": [{"element": "C", "occu": 1}], "xyz": [3.028042, -3.429127, 0.28825], "properties": {}}, {"name": "C", "species": [{"element": "C", "occu": 1}], "xyz": [6.2131, 1.939331, -1.987548], "properties": {}}, {"name": "H", "species": [{"element": "H", "occu": 1}], "xyz": [3.156924, -1.904258, 1.782336], "properties": {}}, {"name": "H", "species": [{"element": "H", "occu": 1}], "xyz": [1.516602, -2.150721, 1.090337], "properties": {}}, {"name": "H", "species": [{"element": "H", "occu": 1}], "xyz": [4.446954, 1.543836, -3.126866], "properties": {}}, {"name": "H", "species": [{"element": "H", "occu": 1}], "xyz": [4.349485, 2.981102, -2.052103], "properties": {}}]}, "smiles": "FC(F)(OCC(F)(F)F)C(F)(F)OCC(F)(F)F", "inchi": "InChI=1S/C6H4F10O2/c7-3(8,9)1-17-5(13,14)6(15,16)18-2-4(10,11)12/h1-2H2", "formula_alphabetical": "C6 F10 H4 O2", "chemsys": "C-F-H-O", "energy": -1379.9887169, "esp": {"1": ["F", -0.170626], "2": ["F", -0.168546], "3": ["F", -0.155697], "4": ["F", -0.158302], "5": ["F", -0.183441], "6": ["F", -0.182121], "7": ["F", -0.218431], "8": ["F", -0.185169], "9": ["F", -0.18747], "10": ["F", -0.224825], "11": ["O", -0.244278], "12": ["O", -0.252319], "13": ["C", 0.422572], "14": ["C", 0.355069], "15": ["C", -0.18298], "16": ["C", -0.173826], "17": ["C", 0.607072], "18": ["C", 0.62524], "19": ["H", 0.17058], "20": ["H", 0.168516], "21": ["H", 0.168949], "22": ["H", 0.170035]}, "dipole_moment": {"X": -1.0489, "Y": 0.7308, "Z": 0.2349, "Tot": 1.2997}, "functional": "B3LYP", "basis": "6-31+G*", "phase": "gas", "tag": "lis", "state": "successful", "wall_time (s)": 16.578325346999918, "version": "0.0.1", "gauss_version": "ES64L-G16RevC.01", "last_updated": "2021-09-09 18:45:17.510000", "polarizability": 87.88, "fluorinated-solvent": "11150666", "run_ids": ["613a4aec032b3a538c423fd0", "613a563a3744e441440a42ac"]}