{"_id": "613a5574c5ec85c69331a930", "molecule": {"@module": "pymatgen.core.structure", "@class": "Molecule", "charge": 0, "spin_multiplicity": 1, "sites": [{"name": "F", "species": [{"element": "F", "occu": 1}], "xyz": [1.451966, -0.712087, 0.378772], "properties": {}}, {"name": "F", "species": [{"element": "F", "occu": 1}], "xyz": [3.60047, -1.13728, 0.333199], "properties": {}}, {"name": "F", "species": [{"element": "F", "occu": 1}], "xyz": [1.965104, 1.826854, 1.380851], "properties": {}}, {"name": "F", "species": [{"element": "F", "occu": 1}], "xyz": [2.874019, 0.197474, 2.563083], "properties": {}}, {"name": "O", "species": [{"element": "O", "occu": 1}], "xyz": [2.799608, 0.555413, -0.938253], "properties": {}}, {"name": "C", "species": [{"element": "C", "occu": 1}], "xyz": [2.312935, 0.004403, -2.217401], "properties": {}}, {"name": "C", "species": [{"element": "C", "occu": 1}], "xyz": [2.676525, -0.1139, 0.217191], "properties": {}}, {"name": "C", "species": [{"element": "C", "occu": 1}], "xyz": [2.66406, -1.467036, -2.412405], "properties": {}}, {"name": "C", "species": [{"element": "C", "occu": 1}], "xyz": [0.827449, 0.311921, -2.380301], "properties": {}}, {"name": "C", "species": [{"element": "C", "occu": 1}], "xyz": [2.934909, 0.867806, 1.378853], "properties": {}}, {"name": "H", "species": [{"element": "H", "occu": 1}], "xyz": [2.886406, 0.608227, -2.926519], "properties": {}}, {"name": "H", "species": [{"element": "H", "occu": 1}], "xyz": [2.108486, -2.110031, -1.723645], "properties": {}}, {"name": "H", "species": [{"element": "H", "occu": 1}], "xyz": [2.397777, -1.753425, -3.436415], "properties": {}}, {"name": "H", "species": [{"element": "H", "occu": 1}], "xyz": [3.73384, -1.642277, -2.269492], "properties": {}}, {"name": "H", "species": [{"element": "H", "occu": 1}], "xyz": [0.630734, 1.36782, -2.169632], "properties": {}}, {"name": "H", "species": [{"element": "H", "occu": 1}], "xyz": [0.526049, 0.102141, -3.413497], "properties": {}}, {"name": "H", "species": [{"element": "H", "occu": 1}], "xyz": [0.217458, -0.298868, -1.709361], "properties": {}}, {"name": "H", "species": [{"element": "H", "occu": 1}], "xyz": [3.913943, 1.344304, 1.281451], "properties": {}}]}, "smiles": "FC(F)(OC(C)C)C(F)F", "inchi": "InChI=1S/C5H8F4O/c1-3(2)10-5(8,9)4(6)7/h3-4H,1-2H3", "formula_alphabetical": "C5 F4 H8 O1", "chemsys": "C-F-H-O", "energy": -669.974666847, "esp": {"1": ["F", -0.196605], "2": ["F", -0.243065], "3": ["F", -0.210439], "4": ["F", -0.22004], "5": ["O", -0.539819], "6": ["C", 0.668706], "7": ["C", 0.51345], "8": ["C", -0.555849], "9": ["C", -0.462827], "10": ["C", 0.351797], "11": ["H", -0.013032], "12": ["H", 0.163703], "13": ["H", 0.123439], "14": ["H", 0.157369], "15": ["H", 0.124136], "16": ["H", 0.099008], "17": ["H", 0.137371], "18": ["H", 0.102693]}, "dipole_moment": {"X": 0.6055, "Y": 0.2786, "Z": -3.2537, "Tot": 3.3213}, "functional": "B3LYP", "basis": "6-31+G*", "phase": "gas", "tag": "lis", "state": "successful", "wall_time (s)": 8.236490800976753, "version": "0.0.1", "gauss_version": "ES64L-G16RevC.01", "last_updated": "2021-09-09 18:41:55.903000", "polarizability": 67.01, "fluorinated-solvent": "22007977", "run_ids": ["613a4ae2ef146f1fe0917d64", "613a556a13a4184cced2bd11"]}