{"_id": "613a4fc01bdf98d0bd6625ef", "molecule": {"@module": "pymatgen.core.structure", "@class": "Molecule", "charge": 0, "spin_multiplicity": 1, "sites": [{"name": "F", "species": [{"element": "F", "occu": 1}], "xyz": [5.246416, -0.625428, -2.815719], "properties": {}}, {"name": "F", "species": [{"element": "F", "occu": 1}], "xyz": [4.303134, 1.336322, -2.97839], "properties": {}}, {"name": "F", "species": [{"element": "F", "occu": 1}], "xyz": [4.650605, 0.140208, -4.772447], "properties": {}}, {"name": "F", "species": [{"element": "F", "occu": 1}], "xyz": [-0.723781, -3.141494, 1.391136], "properties": {}}, {"name": "F", "species": [{"element": "F", "occu": 1}], "xyz": [-1.665691, -1.179087, 1.228503], "properties": {}}, {"name": "F", "species": [{"element": "F", "occu": 1}], "xyz": [-2.64086, -2.932589, 0.36585], "properties": {}}, {"name": "O", "species": [{"element": "O", "occu": 1}], "xyz": [1.189672, -1.281059, -1.872094], "properties": {}}, {"name": "C", "species": [{"element": "C", "occu": 1}], "xyz": [2.470111, -0.667, -1.86439], "properties": {}}, {"name": "C", "species": [{"element": "C", "occu": 1}], "xyz": [0.637565, -1.438017, -0.57317], "properties": {}}, {"name": "C", "species": [{"element": "C", "occu": 1}], "xyz": [2.918746, -0.572024, -3.320164], "properties": {}}, {"name": "C", "species": [{"element": "C", "occu": 1}], "xyz": [-0.723325, -2.105063, -0.75386], "properties": {}}, {"name": "C", "species": [{"element": "C", "occu": 1}], "xyz": [4.278402, 0.069168, -3.471058], "properties": {}}, {"name": "C", "species": [{"element": "C", "occu": 1}], "xyz": [-1.437314, -2.33911, 0.55684], "properties": {}}, {"name": "H", "species": [{"element": "H", "occu": 1}], "xyz": [3.181515, -1.268597, -1.278189], "properties": {}}, {"name": "H", "species": [{"element": "H", "occu": 1}], "xyz": [2.413709, 0.33417, -1.410405], "properties": {}}, {"name": "H", "species": [{"element": "H", "occu": 1}], "xyz": [1.295028, -2.0621, 0.051255], "properties": {}}, {"name": "H", "species": [{"element": "H", "occu": 1}], "xyz": [0.527259, -0.45937, -0.081502], "properties": {}}, {"name": "H", "species": [{"element": "H", "occu": 1}], "xyz": [2.202735, 0.02206, -3.895905], "properties": {}}, {"name": "H", "species": [{"element": "H", "occu": 1}], "xyz": [2.968415, -1.570794, -3.764087], "properties": {}}, {"name": "H", "species": [{"element": "H", "occu": 1}], "xyz": [-1.367951, -1.480326, -1.379356], "properties": {}}, {"name": "H", "species": [{"element": "H", "occu": 1}], "xyz": [-0.604079, -3.074043, -1.247771], "properties": {}}]}, "smiles": "FC(F)(F)CCOCCC(F)(F)F", "inchi": "InChI=1S/C6H8F6O/c7-5(8,9)1-3-13-4-2-6(10,11)12/h1-4H2", "formula_alphabetical": "C6 F6 H8 O1", "chemsys": "C-F-H-O", "energy": -907.796565779, "esp": {"1": ["F", -0.231127], "2": ["F", -0.230996], "3": ["F", -0.230301], "4": ["F", -0.220551], "5": ["F", -0.221624], "6": ["F", -0.221131], "7": ["O", -0.425993], "8": ["C", 0.276117], "9": ["C", 0.213206], "10": ["C", -0.342921], "11": ["C", -0.26245], "12": ["C", 0.674724], "13": ["C", 0.620339], "14": ["H", 0.014479], "15": ["H", 0.013532], "16": ["H", 0.02626], "17": ["H", 0.027948], "18": ["H", 0.138196], "19": ["H", 0.136933], "20": ["H", 0.122977], "21": ["H", 0.122381]}, "dipole_moment": {"X": -0.3551, "Y": -0.226, "Z": -0.64, "Tot": 0.766}, "functional": "B3LYP", "basis": "6-31+G*", "phase": "gas", "tag": "lis", "state": "successful", "wall_time (s)": 11.491369166997174, "version": "0.0.1", "gauss_version": "ES64L-G16RevC.01", "last_updated": "2021-09-09 18:17:36.210000", "polarizability": 80.46, "fluorinated-solvent": "136479", "run_ids": ["613a4a85563106566f19f800", "613a4fb72e76b0852fd60def"]}