{"_id": "6141132326862e3370700f6d", "molecule": {"@module": "pymatgen.core.structure", "@class": "Molecule", "charge": 0, "spin_multiplicity": 1, "sites": [{"name": "F", "species": [{"element": "F", "occu": 1}], "xyz": [2.96182, 1.337772, -0.039428], "properties": {}}, {"name": "F", "species": [{"element": "F", "occu": 1}], "xyz": [3.230156, -0.561072, -1.143626], "properties": {}}, {"name": "F", "species": [{"element": "F", "occu": 1}], "xyz": [3.801095, -2.712023, 2.726328], "properties": {}}, {"name": "F", "species": [{"element": "F", "occu": 1}], "xyz": [1.801056, -2.06466, 3.334389], "properties": {}}, {"name": "O", "species": [{"element": "O", "occu": 1}], "xyz": [2.365155, -1.971767, 1.152928], "properties": {}}, {"name": "C", "species": [{"element": "C", "occu": 1}], "xyz": [2.49987, 0.032517, -0.131659], "properties": {}}, {"name": "C", "species": [{"element": "C", "occu": 1}], "xyz": [2.866764, -0.627405, 1.190569], "properties": {}}, {"name": "C", "species": [{"element": "C", "occu": 1}], "xyz": [2.482978, -2.694868, 2.301375], "properties": {}}, {"name": "C", "species": [{"element": "C", "occu": 1}], "xyz": [1.038095, 0.03678, -0.507706], "properties": {}}, {"name": "C", "species": [{"element": "C", "occu": 1}], "xyz": [1.969847, -4.098867, 2.114224], "properties": {}}, {"name": "H", "species": [{"element": "H", "occu": 1}], "xyz": [3.954714, -0.625631, 1.299313], "properties": {}}, {"name": "H", "species": [{"element": "H", "occu": 1}], "xyz": [2.406924, -0.068767, 2.010951], "properties": {}}, {"name": "H", "species": [{"element": "H", "occu": 1}], "xyz": [0.45635, 0.549209, 0.264064], "properties": {}}, {"name": "H", "species": [{"element": "H", "occu": 1}], "xyz": [0.918251, 0.559888, -1.460175], "properties": {}}, {"name": "H", "species": [{"element": "H", "occu": 1}], "xyz": [0.681606, -0.991187, -0.605], "properties": {}}, {"name": "H", "species": [{"element": "H", "occu": 1}], "xyz": [0.917067, -4.064303, 1.824505], "properties": {}}, {"name": "H", "species": [{"element": "H", "occu": 1}], "xyz": [2.549097, -4.593232, 1.331067], "properties": {}}, {"name": "H", "species": [{"element": "H", "occu": 1}], "xyz": [2.075918, -4.645093, 3.054012], "properties": {}}]}, "smiles": "FC(F)(COC(F)(F)C)C", "inchi": "InChI=1S/C5H8F4O/c1-4(6,7)3-10-5(2,8)9/h3H2,1-2H3", "formula_alphabetical": "C5 F4 H8 O1", "chemsys": "C-F-H-O", "energy": -669.99769041, "esp": {"1": ["F", -0.307464], "2": ["F", -0.275198], "3": ["F", -0.264526], "4": ["F", -0.27548], "5": ["O", -0.36113], "6": ["C", 0.699618], "7": ["C", -0.205528], "8": ["C", 0.768183], "9": ["C", -0.422987], "10": ["C", -0.587245], "11": ["H", 0.154207], "12": ["H", 0.141227], "13": ["H", 0.130395], "14": ["H", 0.137272], "15": ["H", 0.127023], "16": ["H", 0.177588], "17": ["H", 0.182755], "18": ["H", 0.181291]}, "dipole_moment": {"X": -2.1839, "Y": -1.3014, "Z": 0.1563, "Tot": 2.5471}, "functional": "B3LYP", "basis": "6-31+G*", "phase": "gas", "tag": "lis", "state": "successful", "wall_time (s)": 7.8668127739802, "version": "0.0.1", "gauss_version": "ES64L-G16RevC.01", "last_updated": "2021-09-14 21:24:50.753000", "polarizability": 66.66, "fluorinated-solvent": "126704987", "run_ids": ["6141125fc5948967bd85e963", "614112d3a696a3b2d80bf671"]}