{"_id": "613a4fb5f22d6c2bf00519ac", "molecule": {"@module": "pymatgen.core.structure", "@class": "Molecule", "charge": 0, "spin_multiplicity": 1, "sites": [{"name": "F", "species": [{"element": "F", "occu": 1}], "xyz": [1.692949, 0.85608, 0.855571], "properties": {}}, {"name": "F", "species": [{"element": "F", "occu": 1}], "xyz": [3.799127, 0.321571, 0.745925], "properties": {}}, {"name": "F", "species": [{"element": "F", "occu": 1}], "xyz": [0.314995, -3.166691, 0.233367], "properties": {}}, {"name": "F", "species": [{"element": "F", "occu": 1}], "xyz": [0.473779, -3.001871, 2.407893], "properties": {}}, {"name": "F", "species": [{"element": "F", "occu": 1}], "xyz": [-0.184892, -1.29023, 1.222419], "properties": {}}, {"name": "F", "species": [{"element": "F", "occu": 1}], "xyz": [4.366519, -2.673209, 1.193727], "properties": {}}, {"name": "F", "species": [{"element": "F", "occu": 1}], "xyz": [2.172431, 3.067317, -0.751276], "properties": {}}, {"name": "F", "species": [{"element": "F", "occu": 1}], "xyz": [4.282196, 2.5297, -0.865235], "properties": {}}, {"name": "F", "species": [{"element": "F", "occu": 1}], "xyz": [3.091133, 2.662271, -2.688233], "properties": {}}, {"name": "O", "species": [{"element": "O", "occu": 1}], "xyz": [2.271032, -1.121496, -0.065343], "properties": {}}, {"name": "C", "species": [{"element": "C", "occu": 1}], "xyz": [2.126602, -1.893893, 1.131811], "properties": {}}, {"name": "C", "species": [{"element": "C", "occu": 1}], "xyz": [2.611372, 0.200914, 0.074267], "properties": {}}, {"name": "C", "species": [{"element": "C", "occu": 1}], "xyz": [2.691037, 0.803219, -1.320855], "properties": {}}, {"name": "C", "species": [{"element": "C", "occu": 1}], "xyz": [0.660252, -2.332647, 1.242436], "properties": {}}, {"name": "C", "species": [{"element": "C", "occu": 1}], "xyz": [3.049535, -3.105073, 1.053808], "properties": {}}, {"name": "C", "species": [{"element": "C", "occu": 1}], "xyz": [3.063099, 2.27578, -1.385711], "properties": {}}, {"name": "H", "species": [{"element": "H", "occu": 1}], "xyz": [2.364398, -1.297659, 2.016686], "properties": {}}, {"name": "H", "species": [{"element": "H", "occu": 1}], "xyz": [3.435795, 0.24305, -1.890293], "properties": {}}, {"name": "H", "species": [{"element": "H", "occu": 1}], "xyz": [1.717366, 0.680945, -1.800198], "properties": {}}, {"name": "H", "species": [{"element": "H", "occu": 1}], "xyz": [2.832121, -3.810215, 1.861753], "properties": {}}, {"name": "H", "species": [{"element": "H", "occu": 1}], "xyz": [2.951264, -3.596821, 0.081951], "properties": {}}]}, "smiles": "FC(F)(O[C@@H](C(F)(F)F)CF)CC(F)(F)F", "inchi": "InChI=1S/C6H5F9O/c7-1-3(6(13,14)15)16-5(11,12)2-4(8,9)10/h3H,1-2H2/t3-/m1/s1", "formula_alphabetical": "C6 F9 H5 O1", "chemsys": "C-F-H-O", "energy": -1205.5259408, "esp": {"1": ["F", -0.248038], "2": ["F", -0.226529], "3": ["F", -0.190416], "4": ["F", -0.20327], "5": ["F", -0.159806], "6": ["F", -0.24156], "7": ["F", -0.20187], "8": ["F", -0.208357], "9": ["F", -0.223956], "10": ["O", -0.392722], "11": ["C", 0.040465], "12": ["C", 0.724217], "13": ["C", -0.493072], "14": ["C", 0.525421], "15": ["C", 0.131164], "16": ["C", 0.673314], "17": ["H", 0.136717], "18": ["H", 0.200275], "19": ["H", 0.191581], "20": ["H", 0.073449], "21": ["H", 0.092992]}, "dipole_moment": {"X": -0.4681, "Y": -2.6857, "Z": -0.6424, "Tot": 2.8009}, "functional": "B3LYP", "basis": "6-31+G*", "phase": "gas", "tag": "lis", "state": "successful", "wall_time (s)": 15.415223860996775, "version": "0.0.1", "gauss_version": "ES64L-G16RevC.01", "last_updated": "2021-09-09 18:17:24.776000", "polarizability": 81.69, "fluorinated-solvent": "23546495", "run_ids": ["613a4a8c4ded5f6daa4bc99e", "613a4faf9de89747c7938c6d"]}