{"_id": "613a53f5368c589256837eab", "molecule": {"@module": "pymatgen.core.structure", "@class": "Molecule", "charge": 0, "spin_multiplicity": 1, "sites": [{"name": "F", "species": [{"element": "F", "occu": 1}], "xyz": [2.501143, 1.537511, 3.121203], "properties": {}}, {"name": "F", "species": [{"element": "F", "occu": 1}], "xyz": [1.155985, 0.190135, 2.033836], "properties": {}}, {"name": "O", "species": [{"element": "O", "occu": 1}], "xyz": [2.936839, 1.070713, 0.950016], "properties": {}}, {"name": "C", "species": [{"element": "C", "occu": 1}], "xyz": [2.852589, 2.519237, -0.961776], "properties": {}}, {"name": "C", "species": [{"element": "C", "occu": 1}], "xyz": [2.254446, 2.236489, 0.407539], "properties": {}}, {"name": "C", "species": [{"element": "C", "occu": 1}], "xyz": [2.604112, 1.39827, -1.977086], "properties": {}}, {"name": "C", "species": [{"element": "C", "occu": 1}], "xyz": [2.477084, 0.586735, 2.118979], "properties": {}}, {"name": "H", "species": [{"element": "H", "occu": 1}], "xyz": [2.413616, 3.460128, -1.321076], "properties": {}}, {"name": "H", "species": [{"element": "H", "occu": 1}], "xyz": [3.929717, 2.696095, -0.845355], "properties": {}}, {"name": "H", "species": [{"element": "H", "occu": 1}], "xyz": [1.183249, 2.016023, 0.336432], "properties": {}}, {"name": "H", "species": [{"element": "H", "occu": 1}], "xyz": [2.403748, 3.076364, 1.094016], "properties": {}}, {"name": "H", "species": [{"element": "H", "occu": 1}], "xyz": [1.5292, 1.228891, -2.120679], "properties": {}}, {"name": "H", "species": [{"element": "H", "occu": 1}], "xyz": [3.038473, 1.649295, -2.951491], "properties": {}}, {"name": "H", "species": [{"element": "H", "occu": 1}], "xyz": [3.050052, 0.45777, -1.637365], "properties": {}}, {"name": "H", "species": [{"element": "H", "occu": 1}], "xyz": [3.081169, -0.267166, 2.427947], "properties": {}}]}, "smiles": "FC(F)OCCC", "inchi": "InChI=1S/C4H8F2O/c1-2-3-7-4(5)6/h4H,2-3H2,1H3", "formula_alphabetical": "C4 F2 H8 O1", "chemsys": "C-F-H-O", "energy": -432.176915688, "esp": {"1": ["F", -0.252469], "2": ["F", -0.251989], "3": ["O", -0.386409], "4": ["C", 0.04317], "5": ["C", 0.078499], "6": ["C", -0.112765], "7": ["C", 0.513429], "8": ["H", 0.000432], "9": ["H", 0.030464], "10": ["H", 0.080751], "11": ["H", 0.064463], "12": ["H", 0.036358], "13": ["H", 0.031905], "14": ["H", 0.035748], "15": ["H", 0.088413]}, "dipole_moment": {"X": 0.6251, "Y": 0.5699, "Z": -1.4927, "Tot": 1.7157}, "functional": "B3LYP", "basis": "6-31+G*", "phase": "gas", "tag": "lis", "state": "successful", "wall_time (s)": 6.051008048001677, "version": "0.0.1", "gauss_version": "ES64L-G16RevC.01", "last_updated": "2021-09-09 18:35:33.187000", "polarizability": 54.33, "fluorinated-solvent": "54078367", "run_ids": ["613a4aca097e85ca11dad471", "613a53ece14450747da5e206"]}