{"_id": "613a4b85cb88be08a21dc42a", "molecule": {"@module": "pymatgen.core.structure", "@class": "Molecule", "charge": 0, "spin_multiplicity": 1, "sites": [{"name": "F", "species": [{"element": "F", "occu": 1}], "xyz": [3.94283, -3.845247, -0.160819], "properties": {}}, {"name": "F", "species": [{"element": "F", "occu": 1}], "xyz": [4.20598, -5.964263, -0.602396], "properties": {}}, {"name": "F", "species": [{"element": "F", "occu": 1}], "xyz": [3.842823, -5.312208, 1.450374], "properties": {}}, {"name": "O", "species": [{"element": "O", "occu": 1}], "xyz": [0.611996, -2.783097, -0.870054], "properties": {}}, {"name": "C", "species": [{"element": "C", "occu": 1}], "xyz": [1.112987, -4.387189, 0.826065], "properties": {}}, {"name": "C", "species": [{"element": "C", "occu": 1}], "xyz": [2.002046, -1.04432, -1.977007], "properties": {}}, {"name": "C", "species": [{"element": "C", "occu": 1}], "xyz": [1.094584, -2.90553, 0.461375], "properties": {}}, {"name": "C", "species": [{"element": "C", "occu": 1}], "xyz": [0.645256, -1.450025, -1.385967], "properties": {}}, {"name": "C", "species": [{"element": "C", "occu": 1}], "xyz": [2.005792, -5.258432, -0.07234], "properties": {}}, {"name": "C", "species": [{"element": "C", "occu": 1}], "xyz": [2.307355, -1.637385, -3.362781], "properties": {}}, {"name": "C", "species": [{"element": "C", "occu": 1}], "xyz": [3.490871, -5.090926, 0.154379], "properties": {}}, {"name": "C", "species": [{"element": "C", "occu": 1}], "xyz": [2.446154, -3.165022, -3.395457], "properties": {}}, {"name": "H", "species": [{"element": "H", "occu": 1}], "xyz": [0.088908, -4.769714, 0.743226], "properties": {}}, {"name": "H", "species": [{"element": "H", "occu": 1}], "xyz": [1.413555, -4.494974, 1.875256], "properties": {}}, {"name": "H", "species": [{"element": "H", "occu": 1}], "xyz": [2.014704, 0.052896, -2.052528], "properties": {}}, {"name": "H", "species": [{"element": "H", "occu": 1}], "xyz": [2.800338, -1.313666, -1.271906], "properties": {}}, {"name": "H", "species": [{"element": "H", "occu": 1}], "xyz": [0.425485, -2.365841, 1.152784], "properties": {}}, {"name": "H", "species": [{"element": "H", "occu": 1}], "xyz": [2.096944, -2.466845, 0.557211], "properties": {}}, {"name": "H", "species": [{"element": "H", "occu": 1}], "xyz": [1.810845, -5.045024, -1.126476], "properties": {}}, {"name": "H", "species": [{"element": "H", "occu": 1}], "xyz": [1.795495, -6.318836, 0.102306], "properties": {}}, {"name": "H", "species": [{"element": "H", "occu": 1}], "xyz": [-0.12885, -1.416117, -2.162456], "properties": {}}, {"name": "H", "species": [{"element": "H", "occu": 1}], "xyz": [0.348074, -0.746305, -0.591419], "properties": {}}, {"name": "H", "species": [{"element": "H", "occu": 1}], "xyz": [1.516761, -1.326451, -4.062434], "properties": {}}, {"name": "H", "species": [{"element": "H", "occu": 1}], "xyz": [3.237385, -1.184883, -3.734256], "properties": {}}, {"name": "H", "species": [{"element": "H", "occu": 1}], "xyz": [1.510348, -3.654426, -3.107169], "properties": {}}, {"name": "H", "species": [{"element": "H", "occu": 1}], "xyz": [2.718582, -3.509851, -4.400506], "properties": {}}, {"name": "H", "species": [{"element": "H", "occu": 1}], "xyz": [3.22553, -3.499775, -2.700584], "properties": {}}]}, "smiles": "FC(F)(F)CCCOCCCC", "inchi": "InChI=1S/C8H15F3O/c1-2-3-6-12-7-4-5-8(9,10)11/h2-7H2,1H3", "formula_alphabetical": "C8 F3 H15 O1", "chemsys": "C-F-H-O", "energy": -688.673855092, "esp": {"1": ["F", -0.182985], "2": ["F", -0.223988], "3": ["F", -0.207836], "4": ["O", -0.428169], "5": ["C", -0.137277], "6": ["C", -0.156855], "7": ["C", 0.193307], "8": ["C", 0.140988], "9": ["C", -0.069751], "10": ["C", 0.219558], "11": ["C", 0.528976], "12": ["C", -0.223869], "13": ["H", 0.078329], "14": ["H", 0.052416], "15": ["H", 0.021347], "16": ["H", 0.069782], "17": ["H", 0.02349], "18": ["H", 0.007742], "19": ["H", 0.052839], "20": ["H", 0.077531], "21": ["H", 0.049267], "22": ["H", 0.020603], "23": ["H", -0.036535], "24": ["H", -0.03611], "25": ["H", 0.076648], "26": ["H", 0.033502], "27": ["H", 0.057048]}, "dipole_moment": {"X": -1.9839, "Y": 1.0901, "Z": 0.2992, "Tot": 2.2833}, "functional": "B3LYP", "basis": "6-31+G*", "phase": "gas", "tag": "lis", "state": "successful", "wall_time (s)": 20.210912963957526, "version": "0.0.1", "gauss_version": "ES64L-G16RevC.01", "last_updated": "2021-09-09 17:59:33.572000", "polarizability": 100.57, "fluorinated-solvent": "54114788", "run_ids": ["613a48ee91061b3289d09c0d", "613a4b25dcfc905350e1c935"]}