{"_id": "61410f9267c63f4324a86518", "molecule": {"@module": "pymatgen.core.structure", "@class": "Molecule", "charge": 0, "spin_multiplicity": 1, "sites": [{"name": "F", "species": [{"element": "F", "occu": 1}], "xyz": [5.196296, 2.576536, 1.599975], "properties": {}}, {"name": "F", "species": [{"element": "F", "occu": 1}], "xyz": [4.449168, 0.93134, 2.824546], "properties": {}}, {"name": "F", "species": [{"element": "F", "occu": 1}], "xyz": [4.687432, 2.919665, 3.69589], "properties": {}}, {"name": "F", "species": [{"element": "F", "occu": 1}], "xyz": [-0.951302, 1.989274, -3.018938], "properties": {}}, {"name": "O", "species": [{"element": "O", "occu": 1}], "xyz": [1.085706, 2.302755, 0.686824], "properties": {}}, {"name": "C", "species": [{"element": "C", "occu": 1}], "xyz": [2.420724, 1.88981, 0.923728], "properties": {}}, {"name": "C", "species": [{"element": "C", "occu": 1}], "xyz": [2.88652, 2.61286, 2.185261], "properties": {}}, {"name": "C", "species": [{"element": "C", "occu": 1}], "xyz": [0.511211, 1.710826, -0.472804], "properties": {}}, {"name": "C", "species": [{"element": "C", "occu": 1}], "xyz": [-0.896062, 2.271194, -0.636751], "properties": {}}, {"name": "C", "species": [{"element": "C", "occu": 1}], "xyz": [4.302386, 2.26041, 2.574736], "properties": {}}, {"name": "C", "species": [{"element": "C", "occu": 1}], "xyz": [-1.630914, 1.673944, -1.82281], "properties": {}}, {"name": "H", "species": [{"element": "H", "occu": 1}], "xyz": [3.063858, 2.150821, 0.068947], "properties": {}}, {"name": "H", "species": [{"element": "H", "occu": 1}], "xyz": [2.468899, 0.798481, 1.064383], "properties": {}}, {"name": "H", "species": [{"element": "H", "occu": 1}], "xyz": [2.235032, 2.35684, 3.026233], "properties": {}}, {"name": "H", "species": [{"element": "H", "occu": 1}], "xyz": [2.839859, 3.695739, 2.035795], "properties": {}}, {"name": "H", "species": [{"element": "H", "occu": 1}], "xyz": [1.12156, 1.939096, -1.359589], "properties": {}}, {"name": "H", "species": [{"element": "H", "occu": 1}], "xyz": [0.479131, 0.613073, -0.358682], "properties": {}}, {"name": "H", "species": [{"element": "H", "occu": 1}], "xyz": [-1.475563, 2.061947, 0.272658], "properties": {}}, {"name": "H", "species": [{"element": "H", "occu": 1}], "xyz": [-0.843373, 3.360722, -0.746933], "properties": {}}, {"name": "H", "species": [{"element": "H", "occu": 1}], "xyz": [-1.681477, 0.579473, -1.76862], "properties": {}}, {"name": "H", "species": [{"element": "H", "occu": 1}], "xyz": [-2.644252, 2.079012, -1.913721], "properties": {}}]}, "smiles": "FC(F)(F)CCOCCCF", "inchi": "InChI=1S/C6H10F4O/c7-3-1-4-11-5-2-6(8,9)10/h1-5H2", "formula_alphabetical": "C6 F4 H10 O1", "chemsys": "C-F-H-O", "energy": -709.288705936, "esp": {"1": ["F", -0.218434], "2": ["F", -0.218436], "3": ["F", -0.214611], "4": ["F", -0.303318], "5": ["O", -0.538679], "6": ["C", 0.398413], "7": ["C", -0.322932], "8": ["C", 0.371594], "9": ["C", -0.109663], "10": ["C", 0.597614], "11": ["C", 0.193875], "12": ["H", -0.015062], "13": ["H", -0.022483], "14": ["H", 0.134395], "15": ["H", 0.133503], "16": ["H", -0.017928], "17": ["H", -0.026739], "18": ["H", 0.034232], "19": ["H", 0.070065], "20": ["H", 0.025657], "21": ["H", 0.048934]}, "dipole_moment": {"X": -2.7208, "Y": -0.6272, "Z": 0.1968, "Tot": 2.7991}, "functional": "B3LYP", "basis": "6-31+G*", "phase": "gas", "tag": "lis", "state": "successful", "wall_time (s)": 8.78747493994888, "version": "0.0.1", "gauss_version": "ES64L-G16RevC.01", "last_updated": "2021-09-14 21:09:38.586000", "polarizability": 79.26, "fluorinated-solvent": "88850808", "run_ids": ["61410f5d7aec278a008c96e2", "61410f7e15bd5bdd1e3cfb89"]}