{"_id": "614118bd941dca1a133a7941", "molecule": {"@module": "pymatgen.core.structure", "@class": "Molecule", "charge": 0, "spin_multiplicity": 1, "sites": [{"name": "F", "species": [{"element": "F", "occu": 1}], "xyz": [1.12666, 0.30948, 0.422214], "properties": {}}, {"name": "F", "species": [{"element": "F", "occu": 1}], "xyz": [2.949634, -0.506475, 1.312649], "properties": {}}, {"name": "F", "species": [{"element": "F", "occu": 1}], "xyz": [1.506704, 2.822813, -1.002099], "properties": {}}, {"name": "F", "species": [{"element": "F", "occu": 1}], "xyz": [3.674021, 4.388368, -0.099327], "properties": {}}, {"name": "F", "species": [{"element": "F", "occu": 1}], "xyz": [5.009603, 3.203828, -1.362229], "properties": {}}, {"name": "F", "species": [{"element": "F", "occu": 1}], "xyz": [3.376075, 4.34473, -2.259341], "properties": {}}, {"name": "O", "species": [{"element": "O", "occu": 1}], "xyz": [2.739344, -0.4895, -0.937168], "properties": {}}, {"name": "C", "species": [{"element": "C", "occu": 1}], "xyz": [3.156753, 1.553787, 0.182366], "properties": {}}, {"name": "C", "species": [{"element": "C", "occu": 1}], "xyz": [2.485055, 0.189845, 0.203776], "properties": {}}, {"name": "C", "species": [{"element": "C", "occu": 1}], "xyz": [2.820418, 2.367041, -1.059392], "properties": {}}, {"name": "C", "species": [{"element": "C", "occu": 1}], "xyz": [2.635905, -2.428766, -2.37404], "properties": {}}, {"name": "C", "species": [{"element": "C", "occu": 1}], "xyz": [2.155364, -1.817168, -1.0657], "properties": {}}, {"name": "C", "species": [{"element": "C", "occu": 1}], "xyz": [4.103243, -2.890889, -2.399119], "properties": {}}, {"name": "C", "species": [{"element": "C", "occu": 1}], "xyz": [3.721502, 3.598588, -1.193275], "properties": {}}, {"name": "C", "species": [{"element": "C", "occu": 1}], "xyz": [5.145589, -1.765216, -2.351264], "properties": {}}, {"name": "H", "species": [{"element": "H", "occu": 1}], "xyz": [2.859829, 2.101325, 1.080167], "properties": {}}, {"name": "H", "species": [{"element": "H", "occu": 1}], "xyz": [4.235973, 1.380033, 0.219455], "properties": {}}, {"name": "H", "species": [{"element": "H", "occu": 1}], "xyz": [2.933727, 1.77458, -1.971881], "properties": {}}, {"name": "H", "species": [{"element": "H", "occu": 1}], "xyz": [1.988299, -3.295251, -2.567529], "properties": {}}, {"name": "H", "species": [{"element": "H", "occu": 1}], "xyz": [2.448119, -1.712537, -3.186018], "properties": {}}, {"name": "H", "species": [{"element": "H", "occu": 1}], "xyz": [2.463585, -2.420014, -0.20406], "properties": {}}, {"name": "H", "species": [{"element": "H", "occu": 1}], "xyz": [1.066117, -1.709694, -1.055314], "properties": {}}, {"name": "H", "species": [{"element": "H", "occu": 1}], "xyz": [4.27218, -3.585019, -1.562694], "properties": {}}, {"name": "H", "species": [{"element": "H", "occu": 1}], "xyz": [4.255137, -3.47721, -3.315628], "properties": {}}, {"name": "H", "species": [{"element": "H", "occu": 1}], "xyz": [5.104988, -1.217351, -1.40546], "properties": {}}, {"name": "H", "species": [{"element": "H", "occu": 1}], "xyz": [6.157843, -2.170519, -2.467792], "properties": {}}, {"name": "H", "species": [{"element": "H", "occu": 1}], "xyz": [4.978298, -1.041842, -3.159739], "properties": {}}]}, "smiles": "FC(F)(OCCCC)C[C@@H](F)C(F)(F)F", "inchi": "InChI=1S/C8H12F6O/c1-2-3-4-15-7(10,11)5-6(9)8(12,13)14/h6H,2-5H2,1H3/t6-/m1/s1", "formula_alphabetical": "C8 F6 H12 O1", "chemsys": "C-F-H-O", "energy": -986.420487078, "esp": {"1": ["F", -0.242056], "2": ["F", -0.273934], "3": ["F", -0.186667], "4": ["F", -0.190835], "5": ["F", -0.216214], "6": ["F", -0.203407], "7": ["O", -0.275393], "8": ["C", -0.552075], "9": ["C", 0.684184], "10": ["C", 0.036161], "11": ["C", -0.07297], "12": ["C", 0.067139], "13": ["C", 0.151486], "14": ["C", 0.624902], "15": ["C", -0.198675], "16": ["H", 0.236423], "17": ["H", 0.19913], "18": ["H", 0.129037], "19": ["H", 0.020631], "20": ["H", 0.046728], "21": ["H", 0.06517], "22": ["H", 0.057666], "23": ["H", -0.017982], "24": ["H", -0.019413], "25": ["H", 0.043516], "26": ["H", 0.04811], "27": ["H", 0.039335]}, "dipole_moment": {"X": 0.8655, "Y": -3.0382, "Z": -1.1095, "Tot": 3.3482}, "functional": "B3LYP", "basis": "6-31+G*", "phase": "gas", "tag": "lis", "state": "successful", "wall_time (s)": 16.24780437303707, "version": "0.0.1", "gauss_version": "ES64L-G16RevC.01", "last_updated": "2021-09-14 21:48:45.212000", "polarizability": 102.25, "fluorinated-solvent": "91735803", "run_ids": ["614118a186dc7c92abac6755", "614118b81642a15c8fb88129"]}