{"_id": "61412b151d240dd6ca971ae8", "molecule": {"@module": "pymatgen.core.structure", "@class": "Molecule", "charge": 0, "spin_multiplicity": 1, "sites": [{"name": "F", "species": [{"element": "F", "occu": 1}], "xyz": [0.967945, -0.336079, 0.213883], "properties": {}}, {"name": "F", "species": [{"element": "F", "occu": 1}], "xyz": [2.34883, 0.606361, -1.191194], "properties": {}}, {"name": "F", "species": [{"element": "F", "occu": 1}], "xyz": [4.438041, -0.999635, -0.211855], "properties": {}}, {"name": "F", "species": [{"element": "F", "occu": 1}], "xyz": [3.060527, -1.93996, 1.190603], "properties": {}}, {"name": "F", "species": [{"element": "F", "occu": 1}], "xyz": [2.695905, 2.032947, 3.500414], "properties": {}}, {"name": "F", "species": [{"element": "F", "occu": 1}], "xyz": [4.077293, 2.971997, 2.098916], "properties": {}}, {"name": "F", "species": [{"element": "F", "occu": 1}], "xyz": [2.165922, 3.932149, 2.55443], "properties": {}}, {"name": "F", "species": [{"element": "F", "occu": 1}], "xyz": [3.409798, -3.277947, -1.056513], "properties": {}}, {"name": "O", "species": [{"element": "O", "occu": 1}], "xyz": [2.751846, 0.778545, 1.017524], "properties": {}}, {"name": "O", "species": [{"element": "O", "occu": 1}], "xyz": [2.622085, -2.077952, -1.0255], "properties": {}}, {"name": "C", "species": [{"element": "C", "occu": 1}], "xyz": [2.279984, -0.00418, 0.028796], "properties": {}}, {"name": "C", "species": [{"element": "C", "occu": 1}], "xyz": [2.082899, 2.033784, 1.200633], "properties": {}}, {"name": "C", "species": [{"element": "C", "occu": 1}], "xyz": [3.145808, -1.310325, 0.003559], "properties": {}}, {"name": "C", "species": [{"element": "C", "occu": 1}], "xyz": [2.776014, 2.738505, 2.355979], "properties": {}}, {"name": "H", "species": [{"element": "H", "occu": 1}], "xyz": [2.171265, 2.655637, 0.306041], "properties": {}}, {"name": "H", "species": [{"element": "H", "occu": 1}], "xyz": [1.032699, 1.88031, 1.462064], "properties": {}}]}, "smiles": "FC(F)(OCC(F)(F)F)C(F)(F)OF", "inchi": "InChI=1S/C4H2F8O2/c5-2(6,7)1-13-3(8,9)4(10,11)14-12/h1H2", "formula_alphabetical": "C4 F8 H2 O2", "chemsys": "C-F-H-O", "energy": -1102.73601951, "esp": {"1": ["F", -0.173124], "2": ["F", -0.172087], "3": ["F", -0.129435], "4": ["F", -0.129143], "5": ["F", -0.184773], "6": ["F", -0.185368], "7": ["F", -0.222206], "8": ["F", -0.01177], "9": ["O", -0.285081], "10": ["O", -0.136514], "11": ["C", 0.496373], "12": ["C", -0.174851], "13": ["C", 0.342766], "14": ["C", 0.631715], "15": ["H", 0.167255], "16": ["H", 0.166245]}, "dipole_moment": {"X": -1.5352, "Y": 1.519, "Z": -0.4934, "Tot": 2.2154}, "functional": "B3LYP", "basis": "6-31+G*", "phase": "gas", "tag": "lis", "state": "successful", "wall_time (s)": 10.398043369059451, "version": "0.0.1", "gauss_version": "ES64L-G16RevC.01", "last_updated": "2021-09-14 23:07:01.076000", "polarizability": 66.61, "fluorinated-solvent": "58112832", "run_ids": ["61412afa63549d84485116eb", "61412b10996f9cbaf381e0f5"]}