{"_id": "613a4c0a290382bc4ec52bd3", "molecule": {"@module": "pymatgen.core.structure", "@class": "Molecule", "charge": 0, "spin_multiplicity": 1, "sites": [{"name": "F", "species": [{"element": "F", "occu": 1}], "xyz": [0.983342, 2.043509, -1.511361], "properties": {}}, {"name": "F", "species": [{"element": "F", "occu": 1}], "xyz": [2.98664, 2.586636, -2.223828], "properties": {}}, {"name": "F", "species": [{"element": "F", "occu": 1}], "xyz": [1.141492, -2.079487, -3.812022], "properties": {}}, {"name": "F", "species": [{"element": "F", "occu": 1}], "xyz": [3.134457, -1.605157, -4.559092], "properties": {}}, {"name": "F", "species": [{"element": "F", "occu": 1}], "xyz": [2.786809, -3.484353, -3.497166], "properties": {}}, {"name": "F", "species": [{"element": "F", "occu": 1}], "xyz": [1.929429, 2.203483, 0.993785], "properties": {}}, {"name": "O", "species": [{"element": "O", "occu": 1}], "xyz": [2.463577, -0.170096, -2.252632], "properties": {}}, {"name": "O", "species": [{"element": "O", "occu": 1}], "xyz": [2.622059, 2.78536, -0.128421], "properties": {}}, {"name": "C", "species": [{"element": "C", "occu": 1}], "xyz": [2.7524, 0.51959, -1.05826], "properties": {}}, {"name": "C", "species": [{"element": "C", "occu": 1}], "xyz": [2.809517, -1.53419, -2.198868], "properties": {}}, {"name": "C", "species": [{"element": "C", "occu": 1}], "xyz": [2.301932, 1.963087, -1.239989], "properties": {}}, {"name": "C", "species": [{"element": "C", "occu": 1}], "xyz": [2.458078, -2.166918, -3.537104], "properties": {}}, {"name": "H", "species": [{"element": "H", "occu": 1}], "xyz": [3.830584, 0.532912, -0.842754], "properties": {}}, {"name": "H", "species": [{"element": "H", "occu": 1}], "xyz": [2.216248, 0.093158, -0.20045], "properties": {}}, {"name": "H", "species": [{"element": "H", "occu": 1}], "xyz": [3.88711, -1.678655, -2.03385], "properties": {}}, {"name": "H", "species": [{"element": "H", "occu": 1}], "xyz": [2.249456, -2.068918, -1.418067], "properties": {}}]}, "smiles": "FC(F)(OF)COCC(F)(F)F", "inchi": "InChI=1S/C4H4F6O2/c5-3(6,7)1-11-2-4(8,9)12-10/h1-2H2", "formula_alphabetical": "C4 F6 H4 O2", "chemsys": "C-F-H-O", "energy": -904.242623413, "esp": {"1": ["F", -0.153821], "2": ["F", -0.133479], "3": ["F", -0.207979], "4": ["F", -0.208946], "5": ["F", -0.247498], "6": ["F", -0.07413], "7": ["O", -0.270919], "8": ["O", -0.13479], "9": ["C", -0.057871], "10": ["C", -0.182089], "11": ["C", 0.451598], "12": ["C", 0.697778], "13": ["H", 0.112021], "14": ["H", 0.136175], "15": ["H", 0.139409], "16": ["H", 0.134543]}, "dipole_moment": {"X": 1.6982, "Y": -1.6101, "Z": 2.5232, "Tot": 3.4413}, "functional": "B3LYP", "basis": "6-31+G*", "phase": "gas", "tag": "lis", "state": "successful", "wall_time (s)": 8.996640169993043, "version": "0.0.1", "gauss_version": "ES64L-G16RevC.01", "last_updated": "2021-09-09 18:01:46.532000", "polarizability": 64.15, "fluorinated-solvent": "21052056", "run_ids": ["613a4951788dec5f46a8fb4c", "613a4b494c29122ad2ee503a"]}