{"_id": "61411de40b6450eccd190536", "molecule": {"@module": "pymatgen.core.structure", "@class": "Molecule", "charge": 0, "spin_multiplicity": 1, "sites": [{"name": "F", "species": [{"element": "F", "occu": 1}], "xyz": [3.331748, 1.277069, -2.788474], "properties": {}}, {"name": "F", "species": [{"element": "F", "occu": 1}], "xyz": [1.276931, 1.055216, -2.06179], "properties": {}}, {"name": "O", "species": [{"element": "O", "occu": 1}], "xyz": [2.919206, -0.15079, -1.088384], "properties": {}}, {"name": "O", "species": [{"element": "O", "occu": 1}], "xyz": [2.418964, -3.954268, 0.698586], "properties": {}}, {"name": "C", "species": [{"element": "C", "occu": 1}], "xyz": [3.082019, -2.542273, -1.10242], "properties": {}}, {"name": "C", "species": [{"element": "C", "occu": 1}], "xyz": [2.781168, -1.314821, -1.945743], "properties": {}}, {"name": "C", "species": [{"element": "C", "occu": 1}], "xyz": [2.083464, -2.74746, 0.030637], "properties": {}}, {"name": "C", "species": [{"element": "C", "occu": 1}], "xyz": [2.599688, 1.051041, -1.628117], "properties": {}}, {"name": "C", "species": [{"element": "C", "occu": 1}], "xyz": [2.824059, 2.172961, -0.646237], "properties": {}}, {"name": "C", "species": [{"element": "C", "occu": 1}], "xyz": [1.574242, -4.231449, 1.800435], "properties": {}}, {"name": "H", "species": [{"element": "H", "occu": 1}], "xyz": [3.06272, -3.423116, -1.756671], "properties": {}}, {"name": "H", "species": [{"element": "H", "occu": 1}], "xyz": [4.093575, -2.46771, -0.6863], "properties": {}}, {"name": "H", "species": [{"element": "H", "occu": 1}], "xyz": [1.761037, -1.340876, -2.345522], "properties": {}}, {"name": "H", "species": [{"element": "H", "occu": 1}], "xyz": [3.486165, -1.224542, -2.778004], "properties": {}}, {"name": "H", "species": [{"element": "H", "occu": 1}], "xyz": [2.117238, -1.899066, 0.732127], "properties": {}}, {"name": "H", "species": [{"element": "H", "occu": 1}], "xyz": [1.055484, -2.808634, -0.370486], "properties": {}}, {"name": "H", "species": [{"element": "H", "occu": 1}], "xyz": [3.876944, 2.193616, -0.355526], "properties": {}}, {"name": "H", "species": [{"element": "H", "occu": 1}], "xyz": [2.551811, 3.120429, -1.116541], "properties": {}}, {"name": "H", "species": [{"element": "H", "occu": 1}], "xyz": [2.204155, 2.008583, 0.238268], "properties": {}}, {"name": "H", "species": [{"element": "H", "occu": 1}], "xyz": [1.631311, -3.436287, 2.561755], "properties": {}}, {"name": "H", "species": [{"element": "H", "occu": 1}], "xyz": [0.523699, -4.342168, 1.484928], "properties": {}}, {"name": "H", "species": [{"element": "H", "occu": 1}], "xyz": [1.917113, -5.172353, 2.238861], "properties": {}}]}, "smiles": "FC(F)(OCCCOC)C", "inchi": "InChI=1S/C6H12F2O2/c1-6(7,8)10-5-3-4-9-2/h3-5H2,1-2H3", "formula_alphabetical": "C6 F2 H12 O2", "chemsys": "C-F-H-O", "energy": -586.021675472, "esp": {"1": ["F", -0.273422], "2": ["F", -0.280657], "3": ["O", -0.418711], "4": ["O", -0.424727], "5": ["C", -0.143861], "6": ["C", 0.141491], "7": ["C", 0.304497], "8": ["C", 0.721392], "9": ["C", -0.513273], "10": ["C", -0.027143], "11": ["H", 0.049286], "12": ["H", 0.075218], "13": ["H", 0.040297], "14": ["H", 0.063353], "15": ["H", 0.002782], "16": ["H", 0.006377], "17": ["H", 0.162608], "18": ["H", 0.163813], "19": ["H", 0.157471], "20": ["H", 0.050544], "21": ["H", 0.044605], "22": ["H", 0.098059]}, "dipole_moment": {"X": -0.4692, "Y": -0.0038, "Z": 1.4331, "Tot": 1.508}, "functional": "B3LYP", "basis": "6-31+G*", "phase": "gas", "tag": "lis", "state": "successful", "wall_time (s)": 10.652074669953436, "version": "0.0.1", "gauss_version": "ES64L-G16RevC.01", "last_updated": "2021-09-14 22:10:43.954000", "polarizability": 82.26, "fluorinated-solvent": "89393880", "run_ids": ["61411dcfd1c4be88c0795915", "61411ddf00d23619f7f00209"]}