{"_id": "613a53028d22008e7ff7f182", "molecule": {"@module": "pymatgen.core.structure", "@class": "Molecule", "charge": 0, "spin_multiplicity": 1, "sites": [{"name": "F", "species": [{"element": "F", "occu": 1}], "xyz": [1.179614, -0.187324, 4.54374], "properties": {}}, {"name": "F", "species": [{"element": "F", "occu": 1}], "xyz": [3.230746, -1.017826, 4.487773], "properties": {}}, {"name": "O", "species": [{"element": "O", "occu": 1}], "xyz": [1.961613, 1.461142, 2.184169], "properties": {}}, {"name": "C", "species": [{"element": "C", "occu": 1}], "xyz": [0.114501, 2.712587, 1.31007], "properties": {}}, {"name": "C", "species": [{"element": "C", "occu": 1}], "xyz": [0.534775, 1.441094, 2.037833], "properties": {}}, {"name": "C", "species": [{"element": "C", "occu": 1}], "xyz": [0.735179, 2.889941, -0.085468], "properties": {}}, {"name": "C", "species": [{"element": "C", "occu": 1}], "xyz": [2.549538, 0.26827, 2.650407], "properties": {}}, {"name": "C", "species": [{"element": "C", "occu": 1}], "xyz": [2.486334, 0.11144, 4.171784], "properties": {}}, {"name": "C", "species": [{"element": "C", "occu": 1}], "xyz": [0.352262, 1.791023, -1.085149], "properties": {}}, {"name": "C", "species": [{"element": "C", "occu": 1}], "xyz": [2.970457, 1.285127, 4.986305], "properties": {}}, {"name": "H", "species": [{"element": "H", "occu": 1}], "xyz": [-0.982715, 2.702015, 1.232415], "properties": {}}, {"name": "H", "species": [{"element": "H", "occu": 1}], "xyz": [0.378878, 3.573255, 1.939027], "properties": {}}, {"name": "H", "species": [{"element": "H", "occu": 1}], "xyz": [0.242306, 0.541959, 1.473546], "properties": {}}, {"name": "H", "species": [{"element": "H", "occu": 1}], "xyz": [0.051061, 1.385204, 3.021605], "properties": {}}, {"name": "H", "species": [{"element": "H", "occu": 1}], "xyz": [0.417975, 3.864335, -0.481287], "properties": {}}, {"name": "H", "species": [{"element": "H", "occu": 1}], "xyz": [1.826472, 2.932252, 0.014722], "properties": {}}, {"name": "H", "species": [{"element": "H", "occu": 1}], "xyz": [3.605716, 0.301991, 2.364844], "properties": {}}, {"name": "H", "species": [{"element": "H", "occu": 1}], "xyz": [2.089578, -0.623454, 2.198547], "properties": {}}, {"name": "H", "species": [{"element": "H", "occu": 1}], "xyz": [-0.738367, 1.699621, -1.177859], "properties": {}}, {"name": "H", "species": [{"element": "H", "occu": 1}], "xyz": [0.754526, 2.009476, -2.081547], "properties": {}}, {"name": "H", "species": [{"element": "H", "occu": 1}], "xyz": [0.744671, 0.812623, -0.783104], "properties": {}}, {"name": "H", "species": [{"element": "H", "occu": 1}], "xyz": [2.3839, 2.171628, 4.733414], "properties": {}}, {"name": "H", "species": [{"element": "H", "occu": 1}], "xyz": [2.860218, 1.056676, 6.049856], "properties": {}}, {"name": "H", "species": [{"element": "H", "occu": 1}], "xyz": [4.023123, 1.481437, 4.76286], "properties": {}}]}, "smiles": "FC(F)(COCCCC)C", "inchi": "InChI=1S/C7H14F2O/c1-3-4-5-10-6-7(2,8)9/h3-6H2,1-2H3", "formula_alphabetical": "C7 F2 H14 O1", "chemsys": "C-F-H-O", "energy": -550.112594603, "esp": {"1": ["F", -0.298681], "2": ["F", -0.314979], "3": ["O", -0.327032], "4": ["C", -0.307395], "5": ["C", 0.222668], "6": ["C", 0.325691], "7": ["C", -0.135269], "8": ["C", 0.680905], "9": ["C", -0.259404], "10": ["C", -0.441281], "11": ["H", 0.072743], "12": ["H", 0.073674], "13": ["H", 0.003697], "14": ["H", 0.035095], "15": ["H", -0.046927], "16": ["H", -0.068986], "17": ["H", 0.118374], "18": ["H", 0.097218], "19": ["H", 0.047691], "20": ["H", 0.04682], "21": ["H", 0.077324], "22": ["H", 0.128403], "23": ["H", 0.146877], "24": ["H", 0.122775]}, "dipole_moment": {"X": -0.075, "Y": 1.4228, "Z": -0.8095, "Tot": 1.6387}, "functional": "B3LYP", "basis": "6-31+G*", "phase": "gas", "tag": "lis", "state": "successful", "wall_time (s)": 9.845535918000678, "version": "0.0.1", "gauss_version": "ES64L-G16RevC.01", "last_updated": "2021-09-09 18:31:30.143000", "polarizability": 88.81, "fluorinated-solvent": "15062441", "run_ids": ["613a4abdc359aa45b2cb6874", "613a52fc67da906b8e30e388"]}