{"_id": "613a57958face96b8983b1dc", "molecule": {"@module": "pymatgen.core.structure", "@class": "Molecule", "charge": 0, "spin_multiplicity": 1, "sites": [{"name": "F", "species": [{"element": "F", "occu": 1}], "xyz": [1.160921, 0.655925, -0.483261], "properties": {}}, {"name": "F", "species": [{"element": "F", "occu": 1}], "xyz": [3.280594, 1.086208, -0.822343], "properties": {}}, {"name": "F", "species": [{"element": "F", "occu": 1}], "xyz": [1.618379, -2.056595, -0.666633], "properties": {}}, {"name": "F", "species": [{"element": "F", "occu": 1}], "xyz": [2.517578, -2.277413, -3.165893], "properties": {}}, {"name": "F", "species": [{"element": "F", "occu": 1}], "xyz": [1.324426, -0.460931, -3.012218], "properties": {}}, {"name": "F", "species": [{"element": "F", "occu": 1}], "xyz": [3.502819, -0.333401, -3.118491], "properties": {}}, {"name": "O", "species": [{"element": "O", "occu": 1}], "xyz": [2.691277, -0.122323, 0.995096], "properties": {}}, {"name": "C", "species": [{"element": "C", "occu": 1}], "xyz": [2.419804, 0.140866, -0.292296], "properties": {}}, {"name": "C", "species": [{"element": "C", "occu": 1}], "xyz": [2.588245, -1.168866, -1.089456], "properties": {}}, {"name": "C", "species": [{"element": "C", "occu": 1}], "xyz": [2.288299, 0.791814, 2.081859], "properties": {}}, {"name": "C", "species": [{"element": "C", "occu": 1}], "xyz": [2.469711, -1.042477, -2.618761], "properties": {}}, {"name": "C", "species": [{"element": "C", "occu": 1}], "xyz": [2.572437, 2.257955, 1.771853], "properties": {}}, {"name": "C", "species": [{"element": "C", "occu": 1}], "xyz": [0.844463, 0.512087, 2.487511], "properties": {}}, {"name": "H", "species": [{"element": "H", "occu": 1}], "xyz": [3.575073, -1.582484, -0.864291], "properties": {}}, {"name": "H", "species": [{"element": "H", "occu": 1}], "xyz": [2.957756, 0.456917, 2.879294], "properties": {}}, {"name": "H", "species": [{"element": "H", "occu": 1}], "xyz": [1.920744, 2.63792, 0.979914], "properties": {}}, {"name": "H", "species": [{"element": "H", "occu": 1}], "xyz": [2.385997, 2.845525, 2.678202], "properties": {}}, {"name": "H", "species": [{"element": "H", "occu": 1}], "xyz": [3.613261, 2.405228, 1.470626], "properties": {}}, {"name": "H", "species": [{"element": "H", "occu": 1}], "xyz": [0.690007, -0.561734, 2.632525], "properties": {}}, {"name": "H", "species": [{"element": "H", "occu": 1}], "xyz": [0.629947, 1.024215, 3.433031], "properties": {}}, {"name": "H", "species": [{"element": "H", "occu": 1}], "xyz": [0.139819, 0.868753, 1.731674], "properties": {}}]}, "smiles": "FC(F)(OC(C)C)[C@@H](F)C(F)(F)F", "inchi": "InChI=1S/C6H8F6O/c1-3(2)13-6(11,12)4(7)5(8,9)10/h3-4H,1-2H3/t4-/m0/s1", "formula_alphabetical": "C6 F6 H8 O1", "chemsys": "C-F-H-O", "energy": -907.778293182, "esp": {"1": ["F", -0.195869], "2": ["F", -0.229033], "3": ["F", -0.167111], "4": ["F", -0.20855], "5": ["F", -0.188626], "6": ["F", -0.214228], "7": ["O", -0.452614], "8": ["C", 0.536322], "9": ["C", -0.091614], "10": ["C", 0.564443], "11": ["C", 0.647297], "12": ["C", -0.532236], "13": ["C", -0.438769], "14": ["H", 0.171631], "15": ["H", 0.004794], "16": ["H", 0.156295], "17": ["H", 0.130975], "18": ["H", 0.148448], "19": ["H", 0.12242], "20": ["H", 0.100559], "21": ["H", 0.135464]}, "dipole_moment": {"X": 0.7941, "Y": 1.0023, "Z": 3.4168, "Tot": 3.6482}, "functional": "B3LYP", "basis": "6-31+G*", "phase": "gas", "tag": "lis", "state": "successful", "wall_time (s)": 11.642959051998332, "version": "0.0.1", "gauss_version": "ES64L-G16RevC.01", "last_updated": "2021-09-09 18:51:01.084000", "polarizability": 80.12, "fluorinated-solvent": "54406082", "run_ids": ["613a4b02002f1c0938cbcefb", "613a57907f83395488b37e77"]}