{"_id": "613a4b840a536395faa63379", "molecule": {"@module": "pymatgen.core.structure", "@class": "Molecule", "charge": 0, "spin_multiplicity": 1, "sites": [{"name": "F", "species": [{"element": "F", "occu": 1}], "xyz": [0.897905, -0.091256, 0.342738], "properties": {}}, {"name": "F", "species": [{"element": "F", "occu": 1}], "xyz": [2.630695, -1.125309, -0.482932], "properties": {}}, {"name": "F", "species": [{"element": "F", "occu": 1}], "xyz": [2.746792, -0.761093, 2.224362], "properties": {}}, {"name": "F", "species": [{"element": "F", "occu": 1}], "xyz": [4.326998, 0.3089, 1.123522], "properties": {}}, {"name": "F", "species": [{"element": "F", "occu": 1}], "xyz": [0.655678, 1.835689, -1.924051], "properties": {}}, {"name": "F", "species": [{"element": "F", "occu": 1}], "xyz": [3.273105, 1.720116, 3.276368], "properties": {}}, {"name": "F", "species": [{"element": "F", "occu": 1}], "xyz": [2.13337, 1.827731, -4.219011], "properties": {}}, {"name": "F", "species": [{"element": "F", "occu": 1}], "xyz": [3.100211, 2.990741, -2.643009], "properties": {}}, {"name": "F", "species": [{"element": "F", "occu": 1}], "xyz": [3.859433, 1.007106, -3.160489], "properties": {}}, {"name": "O", "species": [{"element": "O", "occu": 1}], "xyz": [2.459982, 1.102444, -0.764427], "properties": {}}, {"name": "C", "species": [{"element": "C", "occu": 1}], "xyz": [2.230385, 0.042924, 0.079468], "properties": {}}, {"name": "C", "species": [{"element": "C", "occu": 1}], "xyz": [2.994271, 0.298695, 1.405656], "properties": {}}, {"name": "C", "species": [{"element": "C", "occu": 1}], "xyz": [1.804032, 1.090624, -2.001877], "properties": {}}, {"name": "C", "species": [{"element": "C", "occu": 1}], "xyz": [2.580808, 1.603336, 2.082038], "properties": {}}, {"name": "C", "species": [{"element": "C", "occu": 1}], "xyz": [2.74726, 1.753496, -3.023221], "properties": {}}, {"name": "H", "species": [{"element": "H", "occu": 1}], "xyz": [1.550072, 0.079063, -2.328708], "properties": {}}, {"name": "H", "species": [{"element": "H", "occu": 1}], "xyz": [2.835863, 2.447995, 1.437146], "properties": {}}, {"name": "H", "species": [{"element": "H", "occu": 1}], "xyz": [1.507747, 1.58521, 2.293437], "properties": {}}]}, "smiles": "FC(F)(O[C@@H](F)C(F)(F)F)C(F)(F)CF", "inchi": "InChI=1S/C5H3F9O/c6-1-3(8,9)5(13,14)15-2(7)4(10,11)12/h2H,1H2/t2-/m1/s1", "formula_alphabetical": "C5 F9 H3 O1", "chemsys": "C-F-H-O", "energy": -1166.18590852, "esp": {"1": ["F", -0.165382], "2": ["F", -0.156438], "3": ["F", -0.173736], "4": ["F", -0.170981], "5": ["F", -0.178108], "6": ["F", -0.224224], "7": ["F", -0.18435], "8": ["F", -0.148644], "9": ["F", -0.18099], "10": ["O", -0.306489], "11": ["C", 0.394106], "12": ["C", 0.329319], "13": ["C", 0.151913], "14": ["C", 0.115511], "15": ["C", 0.541576], "16": ["H", 0.168827], "17": ["H", 0.094858], "18": ["H", 0.093232]}, "dipole_moment": {"X": -1.6011, "Y": 0.3028, "Z": -1.098, "Tot": 1.9649}, "functional": "B3LYP", "basis": "6-31+G*", "phase": "gas", "tag": "lis", "state": "successful", "wall_time (s)": 17.19176817801781, "version": "0.0.1", "gauss_version": "ES64L-G16RevC.01", "last_updated": "2021-09-09 17:59:31.935000", "polarizability": 70.86, "fluorinated-solvent": "53794101", "run_ids": ["613a48e4a233c5f378a55eb3", "613a4b214c0a15e69d4adc8d"]}