{"_id": "613a4c86447c001b212e0602", "molecule": {"@module": "pymatgen.core.structure", "@class": "Molecule", "charge": 0, "spin_multiplicity": 1, "sites": [{"name": "F", "species": [{"element": "F", "occu": 1}], "xyz": [3.432941, 0.236415, 1.153705], "properties": {}}, {"name": "F", "species": [{"element": "F", "occu": 1}], "xyz": [1.35252, 0.070513, 0.441553], "properties": {}}, {"name": "F", "species": [{"element": "F", "occu": 1}], "xyz": [2.616048, -2.33828, 0.70296], "properties": {}}, {"name": "F", "species": [{"element": "F", "occu": 1}], "xyz": [2.140518, -1.860383, -1.374383], "properties": {}}, {"name": "F", "species": [{"element": "F", "occu": 1}], "xyz": [4.198996, -1.702882, -0.660263], "properties": {}}, {"name": "F", "species": [{"element": "F", "occu": 1}], "xyz": [3.791411, 3.364018, -2.28757], "properties": {}}, {"name": "O", "species": [{"element": "O", "occu": 1}], "xyz": [2.725192, 2.236268, -0.602815], "properties": {}}, {"name": "C", "species": [{"element": "C", "occu": 1}], "xyz": [2.660051, -0.037044, 0.065617], "properties": {}}, {"name": "C", "species": [{"element": "C", "occu": 1}], "xyz": [2.970291, 0.922603, -1.076181], "properties": {}}, {"name": "C", "species": [{"element": "C", "occu": 1}], "xyz": [2.907613, -1.521459, -0.315728], "properties": {}}, {"name": "C", "species": [{"element": "C", "occu": 1}], "xyz": [2.586298, 3.187947, -1.592358], "properties": {}}, {"name": "H", "species": [{"element": "H", "occu": 1}], "xyz": [4.016656, 0.801092, -1.375601], "properties": {}}, {"name": "H", "species": [{"element": "H", "occu": 1}], "xyz": [2.318712, 0.6744, -1.925021], "properties": {}}, {"name": "H", "species": [{"element": "H", "occu": 1}], "xyz": [1.839695, 2.900308, -2.345876], "properties": {}}, {"name": "H", "species": [{"element": "H", "occu": 1}], "xyz": [2.341578, 4.129515, -1.098648], "properties": {}}]}, "smiles": "FC(F)(COCF)C(F)(F)F", "inchi": "InChI=1S/C4H4F6O/c5-2-11-1-3(6,7)4(8,9)10/h1-2H2", "formula_alphabetical": "C4 F6 H4 O1", "chemsys": "C-F-H-O", "energy": -829.137604693, "esp": {"1": ["F", -0.140232], "2": ["F", -0.156759], "3": ["F", -0.14737], "4": ["F", -0.189479], "5": ["F", -0.18842], "6": ["F", -0.263516], "7": ["O", -0.29752], "8": ["C", 0.160371], "9": ["C", 0.072357], "10": ["C", 0.542177], "11": ["C", 0.233736], "12": ["H", 0.110784], "13": ["H", 0.094054], "14": ["H", 0.063435], "15": ["H", 0.106381]}, "dipole_moment": {"X": -1.1027, "Y": 0.8177, "Z": -1.7782, "Tot": 2.2464}, "functional": "B3LYP", "basis": "6-31+G*", "phase": "gas", "tag": "lis", "state": "successful", "wall_time (s)": 8.38806210597977, "version": "0.0.1", "gauss_version": "ES64L-G16RevC.01", "last_updated": "2021-09-09 18:03:49.965000", "polarizability": 57.51, "fluorinated-solvent": "19063467", "run_ids": ["613a498c120098161ecda870", "613a4b640d8f56b4504282a3"]}