{"_id": "61412c1d0ede434da561290e", "molecule": {"@module": "pymatgen.core.structure", "@class": "Molecule", "charge": 0, "spin_multiplicity": 1, "sites": [{"name": "F", "species": [{"element": "F", "occu": 1}], "xyz": [0.857822, -0.028079, 0.196974], "properties": {}}, {"name": "F", "species": [{"element": "F", "occu": 1}], "xyz": [2.616094, -1.117419, 0.896981], "properties": {}}, {"name": "F", "species": [{"element": "F", "occu": 1}], "xyz": [4.198054, 1.128096, 0.371996], "properties": {}}, {"name": "F", "species": [{"element": "F", "occu": 1}], "xyz": [2.41662, 2.212815, -0.280223], "properties": {}}, {"name": "F", "species": [{"element": "F", "occu": 1}], "xyz": [1.580932, -2.3735, -1.35953], "properties": {}}, {"name": "F", "species": [{"element": "F", "occu": 1}], "xyz": [0.775578, -0.693548, -2.499447], "properties": {}}, {"name": "F", "species": [{"element": "F", "occu": 1}], "xyz": [3.217608, -0.45623, -3.85514], "properties": {}}, {"name": "F", "species": [{"element": "F", "occu": 1}], "xyz": [3.995915, -2.154936, -2.729741], "properties": {}}, {"name": "F", "species": [{"element": "F", "occu": 1}], "xyz": [3.775886, 3.289969, 2.062696], "properties": {}}, {"name": "F", "species": [{"element": "F", "occu": 1}], "xyz": [1.600374, 3.471042, 2.00155], "properties": {}}, {"name": "F", "species": [{"element": "F", "occu": 1}], "xyz": [3.150545, -4.24685, -4.948268], "properties": {}}, {"name": "F", "species": [{"element": "F", "occu": 1}], "xyz": [2.052045, -2.839718, -6.209737], "properties": {}}, {"name": "O", "species": [{"element": "O", "occu": 1}], "xyz": [2.597356, -0.351381, -1.22019], "properties": {}}, {"name": "O", "species": [{"element": "O", "occu": 1}], "xyz": [2.515965, 1.414623, 1.845324], "properties": {}}, {"name": "O", "species": [{"element": "O", "occu": 1}], "xyz": [2.183837, -2.448834, -4.038159], "properties": {}}, {"name": "C", "species": [{"element": "C", "occu": 1}], "xyz": [2.200667, -0.120582, 0.08421], "properties": {}}, {"name": "C", "species": [{"element": "C", "occu": 1}], "xyz": [2.854331, 1.223848, 0.531465], "properties": {}}, {"name": "C", "species": [{"element": "C", "occu": 1}], "xyz": [1.911987, -1.242808, -2.019452], "properties": {}}, {"name": "C", "species": [{"element": "C", "occu": 1}], "xyz": [2.852099, -1.597983, -3.209856], "properties": {}}, {"name": "C", "species": [{"element": "C", "occu": 1}], "xyz": [2.617973, 2.67929, 2.450377], "properties": {}}, {"name": "C", "species": [{"element": "C", "occu": 1}], "xyz": [2.555525, 2.512855, 3.945277], "properties": {}}, {"name": "C", "species": [{"element": "C", "occu": 1}], "xyz": [2.880991, -2.936128, -5.149998], "properties": {}}, {"name": "H", "species": [{"element": "H", "occu": 1}], "xyz": [1.619468, 2.019696, 4.216566], "properties": {}}, {"name": "H", "species": [{"element": "H", "occu": 1}], "xyz": [3.401416, 1.908303, 4.279517], "properties": {}}, {"name": "H", "species": [{"element": "H", "occu": 1}], "xyz": [2.599209, 3.501902, 4.406934], "properties": {}}, {"name": "H", "species": [{"element": "H", "occu": 1}], "xyz": [3.80841, -2.394572, -5.346375], "properties": {}}]}, "smiles": "FC(F)(OC(F)(F)C(F)(F)OC(F)F)C(F)(F)OC(F)(F)C", "inchi": "InChI=1S/C7H4F12O3/c1-3(10,11)21-6(16,17)7(18,19)22-5(14,15)4(12,13)20-2(8)9/h2H,1H3", "formula_alphabetical": "C7 F12 H4 O3", "chemsys": "C-F-H-O", "energy": -1693.01051176, "esp": {"1": ["F", -0.113586], "2": ["F", -0.128288], "3": ["F", -0.125894], "4": ["F", -0.116057], "5": ["F", -0.134364], "6": ["F", -0.14808], "7": ["F", -0.147626], "8": ["F", -0.143353], "9": ["F", -0.217936], "10": ["F", -0.230412], "11": ["F", -0.207965], "12": ["F", -0.204894], "13": ["O", -0.249199], "14": ["O", -0.332558], "15": ["O", -0.261116], "16": ["C", 0.36136], "17": ["C", 0.313652], "18": ["C", 0.443129], "19": ["C", 0.307495], "20": ["C", 0.72206], "21": ["C", -0.558228], "22": ["C", 0.526124], "23": ["H", 0.185255], "24": ["H", 0.184657], "25": ["H", 0.178567], "26": ["H", 0.097259]}, "dipole_moment": {"X": 1.0221, "Y": 0.7268, "Z": 2.4273, "Tot": 2.7322}, "functional": "B3LYP", "basis": "6-31+G*", "phase": "gas", "tag": "lis", "state": "successful", "wall_time (s)": 29.444062944035977, "version": "0.0.1", "gauss_version": "ES64L-G16RevC.01", "last_updated": "2021-09-14 23:11:25.345000", "polarizability": 106.49, "fluorinated-solvent": "88886781", "run_ids": ["61412be5bc4ec5c7cdeffadb", "61412c13a45013853cb55667"]}