{"_id": "61410c048e1299af0476e3e0", "molecule": {"@module": "pymatgen.core.structure", "@class": "Molecule", "charge": 0, "spin_multiplicity": 1, "sites": [{"name": "F", "species": [{"element": "F", "occu": 1}], "xyz": [5.241789, -0.286925, -2.175721], "properties": {}}, {"name": "F", "species": [{"element": "F", "occu": 1}], "xyz": [4.58332, -0.765395, -0.150393], "properties": {}}, {"name": "F", "species": [{"element": "F", "occu": 1}], "xyz": [4.889235, 1.316605, -0.735417], "properties": {}}, {"name": "F", "species": [{"element": "F", "occu": 1}], "xyz": [0.857105, -2.475252, -4.105762], "properties": {}}, {"name": "O", "species": [{"element": "O", "occu": 1}], "xyz": [1.068054, -0.872975, -2.477386], "properties": {}}, {"name": "C", "species": [{"element": "C", "occu": 1}], "xyz": [2.982582, 0.21842, -1.613899], "properties": {}}, {"name": "C", "species": [{"element": "C", "occu": 1}], "xyz": [2.432243, -1.114363, -2.110235], "properties": {}}, {"name": "C", "species": [{"element": "C", "occu": 1}], "xyz": [4.423883, 0.120484, -1.17031], "properties": {}}, {"name": "C", "species": [{"element": "C", "occu": 1}], "xyz": [0.373717, -1.992869, -2.876974], "properties": {}}, {"name": "H", "species": [{"element": "H", "occu": 1}], "xyz": [2.394978, 0.578362, -0.763973], "properties": {}}, {"name": "H", "species": [{"element": "H", "occu": 1}], "xyz": [2.926719, 0.967257, -2.409541], "properties": {}}, {"name": "H", "species": [{"element": "H", "occu": 1}], "xyz": [2.99585, -1.473976, -2.977768], "properties": {}}, {"name": "H", "species": [{"element": "H", "occu": 1}], "xyz": [2.47554, -1.876693, -1.319127], "properties": {}}, {"name": "H", "species": [{"element": "H", "occu": 1}], "xyz": [0.47586, -2.825637, -2.166606], "properties": {}}, {"name": "H", "species": [{"element": "H", "occu": 1}], "xyz": [-0.666414, -1.696896, -3.025204], "properties": {}}]}, "smiles": "FC(F)(F)CCOCF", "inchi": "InChI=1S/C4H6F4O/c5-3-9-2-1-4(6,7)8/h1-3H2", "formula_alphabetical": "C4 F4 H6 O1", "chemsys": "C-F-H-O", "energy": -630.665651065, "esp": {"1": ["F", -0.238658], "2": ["F", -0.235961], "3": ["F", -0.228506], "4": ["F", -0.272522], "5": ["O", -0.408662], "6": ["C", -0.425483], "7": ["C", 0.360683], "8": ["C", 0.697562], "9": ["C", 0.260698], "10": ["H", 0.145238], "11": ["H", 0.163652], "12": ["H", 0.030172], "13": ["H", 0.006503], "14": ["H", 0.048349], "15": ["H", 0.096936]}, "dipole_moment": {"X": -2.0502, "Y": -0.2852, "Z": 1.0181, "Tot": 2.3067}, "functional": "B3LYP", "basis": "6-31+G*", "phase": "gas", "tag": "lis", "state": "successful", "wall_time (s)": 6.484100418980233, "version": "0.0.1", "gauss_version": "ES64L-G16RevC.01", "last_updated": "2021-09-14 20:54:28.211000", "polarizability": 55.69, "fluorinated-solvent": "59129807", "run_ids": ["61410ac0bb1de6f2924a8de1", "61410b84cae427a41a915fe5"]}