{"_id": "6141144c8fc1d72d32f1f32d", "molecule": {"@module": "pymatgen.core.structure", "@class": "Molecule", "charge": 0, "spin_multiplicity": 1, "sites": [{"name": "F", "species": [{"element": "F", "occu": 1}], "xyz": [1.165979, 0.400525, 0.511347], "properties": {}}, {"name": "F", "species": [{"element": "F", "occu": 1}], "xyz": [3.191756, 0.717644, 1.273914], "properties": {}}, {"name": "F", "species": [{"element": "F", "occu": 1}], "xyz": [2.521239, 2.277306, -0.892786], "properties": {}}, {"name": "O", "species": [{"element": "O", "occu": 1}], "xyz": [2.769543, -1.131711, 0.035496], "properties": {}}, {"name": "C", "species": [{"element": "C", "occu": 1}], "xyz": [2.260066, -2.163047, 0.952625], "properties": {}}, {"name": "C", "species": [{"element": "C", "occu": 1}], "xyz": [2.495367, 0.179651, 0.206372], "properties": {}}, {"name": "C", "species": [{"element": "C", "occu": 1}], "xyz": [2.856932, 0.931507, -1.081958], "properties": {}}, {"name": "C", "species": [{"element": "C", "occu": 1}], "xyz": [2.367786, -1.782253, 2.426358], "properties": {}}, {"name": "C", "species": [{"element": "C", "occu": 1}], "xyz": [0.8538, -2.584694, 0.533148], "properties": {}}, {"name": "C", "species": [{"element": "C", "occu": 1}], "xyz": [4.325322, 0.827609, -1.444861], "properties": {}}, {"name": "H", "species": [{"element": "H", "occu": 1}], "xyz": [2.95569, -2.981909, 0.744682], "properties": {}}, {"name": "H", "species": [{"element": "H", "occu": 1}], "xyz": [2.205859, 0.544785, -1.872992], "properties": {}}, {"name": "H", "species": [{"element": "H", "occu": 1}], "xyz": [1.683976, -0.968702, 2.684192], "properties": {}}, {"name": "H", "species": [{"element": "H", "occu": 1}], "xyz": [2.102168, -2.658213, 3.029772], "properties": {}}, {"name": "H", "species": [{"element": "H", "occu": 1}], "xyz": [3.385447, -1.47719, 2.684194], "properties": {}}, {"name": "H", "species": [{"element": "H", "occu": 1}], "xyz": [0.823101, -2.799002, -0.540244], "properties": {}}, {"name": "H", "species": [{"element": "H", "occu": 1}], "xyz": [0.57032, -3.495262, 1.074542], "properties": {}}, {"name": "H", "species": [{"element": "H", "occu": 1}], "xyz": [0.121161, -1.804588, 0.756644], "properties": {}}, {"name": "H", "species": [{"element": "H", "occu": 1}], "xyz": [4.59899, -0.217381, -1.616636], "properties": {}}, {"name": "H", "species": [{"element": "H", "occu": 1}], "xyz": [4.51387, 1.402117, -2.356693], "properties": {}}, {"name": "H", "species": [{"element": "H", "occu": 1}], "xyz": [4.942169, 1.230664, -0.636304], "properties": {}}]}, "smiles": "FC(F)(OC(C)C)[C@@H](F)C", "inchi": "InChI=1S/C6H11F3O/c1-4(2)10-6(8,9)5(3)7/h4-5H,1-3H3/t5-/m0/s1", "formula_alphabetical": "C6 F3 H11 O1", "chemsys": "C-F-H-O", "energy": -610.05153236, "esp": {"1": ["F", -0.245773], "2": ["F", -0.220763], "3": ["F", -0.286464], "4": ["O", -0.50961], "5": ["C", 0.639868], "6": ["C", 0.508492], "7": ["C", 0.315555], "8": ["C", -0.531554], "9": ["C", -0.502964], "10": ["C", -0.392662], "11": ["H", -0.010113], "12": ["H", 0.061108], "13": ["H", 0.161833], "14": ["H", 0.119173], "15": ["H", 0.141154], "16": ["H", 0.119635], "17": ["H", 0.111838], "18": ["H", 0.153924], "19": ["H", 0.106203], "20": ["H", 0.127027], "21": ["H", 0.134093]}, "dipole_moment": {"X": 0.5675, "Y": -3.4026, "Z": -0.5847, "Tot": 3.4988}, "functional": "B3LYP", "basis": "6-31+G*", "phase": "gas", "tag": "lis", "state": "successful", "wall_time (s)": 9.514062242000364, "version": "0.0.1", "gauss_version": "ES64L-G16RevC.01", "last_updated": "2021-09-14 21:29:48.511000", "polarizability": 77.53, "fluorinated-solvent": "152887009", "run_ids": ["614113bfc8f00631c6ffc6b3", "6141141bb58324f1ea94d5e0"]}