{"_id": "614125b4e2b25f51dfd4db0d", "molecule": {"@module": "pymatgen.core.structure", "@class": "Molecule", "charge": 0, "spin_multiplicity": 1, "sites": [{"name": "F", "species": [{"element": "F", "occu": 1}], "xyz": [3.817553, 2.187521, -1.388644], "properties": {}}, {"name": "F", "species": [{"element": "F", "occu": 1}], "xyz": [1.723159, 2.796261, -1.182639], "properties": {}}, {"name": "O", "species": [{"element": "O", "occu": 1}], "xyz": [2.272549, 0.631689, -0.845356], "properties": {}}, {"name": "C", "species": [{"element": "C", "occu": 1}], "xyz": [2.02139, 0.200296, -2.224273], "properties": {}}, {"name": "C", "species": [{"element": "C", "occu": 1}], "xyz": [3.029858, -0.892883, -2.552451], "properties": {}}, {"name": "C", "species": [{"element": "C", "occu": 1}], "xyz": [0.572142, -0.261921, -2.295088], "properties": {}}, {"name": "C", "species": [{"element": "C", "occu": 1}], "xyz": [2.663169, 1.910128, -0.656169], "properties": {}}, {"name": "C", "species": [{"element": "C", "occu": 1}], "xyz": [2.894231, 2.21242, 0.80289], "properties": {}}, {"name": "H", "species": [{"element": "H", "occu": 1}], "xyz": [2.172669, 1.060314, -2.883337], "properties": {}}, {"name": "H", "species": [{"element": "H", "occu": 1}], "xyz": [2.916699, -1.734944, -1.859789], "properties": {}}, {"name": "H", "species": [{"element": "H", "occu": 1}], "xyz": [2.871839, -1.259783, -3.573578], "properties": {}}, {"name": "H", "species": [{"element": "H", "occu": 1}], "xyz": [4.05169, -0.509469, -2.472273], "properties": {}}, {"name": "H", "species": [{"element": "H", "occu": 1}], "xyz": [-0.105774, 0.55848, -2.039764], "properties": {}}, {"name": "H", "species": [{"element": "H", "occu": 1}], "xyz": [0.33501, -0.611196, -3.30698], "properties": {}}, {"name": "H", "species": [{"element": "H", "occu": 1}], "xyz": [0.401461, -1.087336, -1.594229], "properties": {}}, {"name": "H", "species": [{"element": "H", "occu": 1}], "xyz": [3.673936, 1.551993, 1.189484], "properties": {}}, {"name": "H", "species": [{"element": "H", "occu": 1}], "xyz": [3.206369, 3.253805, 0.90848], "properties": {}}, {"name": "H", "species": [{"element": "H", "occu": 1}], "xyz": [1.96755, 2.046527, 1.357234], "properties": {}}]}, "smiles": "FC(F)(OC(C)C)C", "inchi": "InChI=1S/C5H10F2O/c1-4(2)8-5(3,6)7/h4H,1-3H3", "formula_alphabetical": "C5 F2 H10 O1", "chemsys": "C-F-H-O", "energy": -471.506538363, "esp": {"1": ["F", -0.300769], "2": ["F", -0.301396], "3": ["O", -0.529343], "4": ["C", 0.651721], "5": ["C", -0.496247], "6": ["C", -0.496533], "7": ["C", 0.798307], "8": ["C", -0.52098], "9": ["H", -0.026149], "10": ["H", 0.133369], "11": ["H", 0.110908], "12": ["H", 0.127256], "13": ["H", 0.127094], "14": ["H", 0.111327], "15": ["H", 0.133349], "16": ["H", 0.160279], "17": ["H", 0.156434], "18": ["H", 0.161372]}, "dipole_moment": {"X": -0.3348, "Y": -1.3079, "Z": 0.2972, "Tot": 1.3824}, "functional": "B3LYP", "basis": "6-31+G*", "phase": "gas", "tag": "lis", "state": "successful", "wall_time (s)": 6.910387896001339, "version": "0.0.1", "gauss_version": "ES64L-G16RevC.01", "last_updated": "2021-09-14 22:44:03.697000", "polarizability": 65.93, "fluorinated-solvent": "58366762", "run_ids": ["6141259cc6a25d4542bb1e0a", "614125a971fa5c0df094b53d"]}