{"_id": "613a55d06636514a374123b7", "molecule": {"@module": "pymatgen.core.structure", "@class": "Molecule", "charge": 0, "spin_multiplicity": 1, "sites": [{"name": "F", "species": [{"element": "F", "occu": 1}], "xyz": [5.09688, -3.24683, 0.356075], "properties": {}}, {"name": "F", "species": [{"element": "F", "occu": 1}], "xyz": [4.595124, -2.397327, -1.591004], "properties": {}}, {"name": "F", "species": [{"element": "F", "occu": 1}], "xyz": [4.661405, -4.564512, -1.330261], "properties": {}}, {"name": "O", "species": [{"element": "O", "occu": 1}], "xyz": [0.994832, -2.272745, 0.586435], "properties": {}}, {"name": "C", "species": [{"element": "C", "occu": 1}], "xyz": [2.381279, -2.128627, 0.331796], "properties": {}}, {"name": "C", "species": [{"element": "C", "occu": 1}], "xyz": [2.829157, -3.416404, -0.356627], "properties": {}}, {"name": "C", "species": [{"element": "C", "occu": 1}], "xyz": [0.428977, -1.247789, 1.405164], "properties": {}}, {"name": "C", "species": [{"element": "C", "occu": 1}], "xyz": [0.376099, 0.13086, 0.73878], "properties": {}}, {"name": "C", "species": [{"element": "C", "occu": 1}], "xyz": [4.292151, -3.405602, -0.729379], "properties": {}}, {"name": "C", "species": [{"element": "C", "occu": 1}], "xyz": [-0.355204, 0.114785, -0.607432], "properties": {}}, {"name": "H", "species": [{"element": "H", "occu": 1}], "xyz": [2.934455, -1.98205, 1.27317], "properties": {}}, {"name": "H", "species": [{"element": "H", "occu": 1}], "xyz": [2.581598, -1.264318, -0.317433], "properties": {}}, {"name": "H", "species": [{"element": "H", "occu": 1}], "xyz": [2.251787, -3.568528, -1.273656], "properties": {}}, {"name": "H", "species": [{"element": "H", "occu": 1}], "xyz": [2.655676, -4.274109, 0.299988], "properties": {}}, {"name": "H", "species": [{"element": "H", "occu": 1}], "xyz": [-0.586081, -1.599166, 1.620634], "properties": {}}, {"name": "H", "species": [{"element": "H", "occu": 1}], "xyz": [0.980527, -1.192064, 2.358926], "properties": {}}, {"name": "H", "species": [{"element": "H", "occu": 1}], "xyz": [-0.127981, 0.812853, 1.43805], "properties": {}}, {"name": "H", "species": [{"element": "H", "occu": 1}], "xyz": [1.392631, 0.527091, 0.611248], "properties": {}}, {"name": "H", "species": [{"element": "H", "occu": 1}], "xyz": [-1.388219, -0.236301, -0.488836], "properties": {}}, {"name": "H", "species": [{"element": "H", "occu": 1}], "xyz": [-0.386834, 1.11569, -1.05295], "properties": {}}, {"name": "H", "species": [{"element": "H", "occu": 1}], "xyz": [0.140894, -0.558897, -1.314698], "properties": {}}]}, "smiles": "FC(F)(F)CCOCCC", "inchi": "InChI=1S/C6H11F3O/c1-2-4-10-5-3-6(7,8)9/h2-5H2,1H3", "formula_alphabetical": "C6 F3 H11 O1", "chemsys": "C-F-H-O", "energy": -610.047545266, "esp": {"1": ["F", -0.243509], "2": ["F", -0.240822], "3": ["F", -0.227408], "4": ["O", -0.45245], "5": ["C", 0.446384], "6": ["C", -0.459236], "7": ["C", -0.012955], "8": ["C", 0.186357], "9": ["C", 0.694054], "10": ["C", -0.159819], "11": ["H", -0.014452], "12": ["H", -0.007663], "13": ["H", 0.15576], "14": ["H", 0.156509], "15": ["H", 0.091991], "16": ["H", 0.03947], "17": ["H", -0.030415], "18": ["H", -0.042268], "19": ["H", 0.035591], "20": ["H", 0.034586], "21": ["H", 0.050296]}, "dipole_moment": {"X": -1.9314, "Y": 1.3903, "Z": 1.1593, "Tot": 2.6471}, "functional": "B3LYP", "basis": "6-31+G*", "phase": "gas", "tag": "lis", "state": "successful", "wall_time (s)": 9.051267724018544, "version": "0.0.1", "gauss_version": "ES64L-G16RevC.01", "last_updated": "2021-09-09 18:43:28.085000", "polarizability": 78.15, "fluorinated-solvent": "53994368", "run_ids": ["613a4ae52ecb4392dbbae9c7", "613a55c9f08a6f34233b1f4b"]}