{"_id": "61412e60ff1fc63caf99a4a9", "molecule": {"@module": "pymatgen.core.structure", "@class": "Molecule", "charge": 0, "spin_multiplicity": 1, "sites": [{"name": "F", "species": [{"element": "F", "occu": 1}], "xyz": [1.169946, 0.296171, 0.108405], "properties": {}}, {"name": "F", "species": [{"element": "F", "occu": 1}], "xyz": [2.607763, 0.327309, -1.533852], "properties": {}}, {"name": "F", "species": [{"element": "F", "occu": 1}], "xyz": [1.972022, -3.992987, 0.875105], "properties": {}}, {"name": "F", "species": [{"element": "F", "occu": 1}], "xyz": [4.027943, -3.475575, 1.394342], "properties": {}}, {"name": "F", "species": [{"element": "F", "occu": 1}], "xyz": [2.620715, -4.598894, 3.507566], "properties": {}}, {"name": "F", "species": [{"element": "F", "occu": 1}], "xyz": [3.71726, 2.780079, -0.338278], "properties": {}}, {"name": "F", "species": [{"element": "F", "occu": 1}], "xyz": [2.010239, 2.003973, 2.684077], "properties": {}}, {"name": "F", "species": [{"element": "F", "occu": 1}], "xyz": [2.472382, 3.974624, 1.806682], "properties": {}}, {"name": "O", "species": [{"element": "O", "occu": 1}], "xyz": [2.4819, -1.836249, 1.293397], "properties": {}}, {"name": "O", "species": [{"element": "O", "occu": 1}], "xyz": [3.339392, 0.718242, 0.572716], "properties": {}}, {"name": "C", "species": [{"element": "C", "occu": 1}], "xyz": [2.733017, -1.493116, -0.070508], "properties": {}}, {"name": "C", "species": [{"element": "C", "occu": 1}], "xyz": [2.45399, -0.009044, -0.219505], "properties": {}}, {"name": "C", "species": [{"element": "C", "occu": 1}], "xyz": [2.720671, -3.131831, 1.641015], "properties": {}}, {"name": "C", "species": [{"element": "C", "occu": 1}], "xyz": [2.387733, -3.289898, 3.119312], "properties": {}}, {"name": "C", "species": [{"element": "C", "occu": 1}], "xyz": [3.162677, 2.062367, 0.650394], "properties": {}}, {"name": "C", "species": [{"element": "C", "occu": 1}], "xyz": [2.566045, 2.660165, 1.676482], "properties": {}}, {"name": "H", "species": [{"element": "H", "occu": 1}], "xyz": [2.061151, -2.035261, -0.74136], "properties": {}}, {"name": "H", "species": [{"element": "H", "occu": 1}], "xyz": [3.775367, -1.683066, -0.3401], "properties": {}}, {"name": "H", "species": [{"element": "H", "occu": 1}], "xyz": [3.02811, -2.622502, 3.702193], "properties": {}}, {"name": "H", "species": [{"element": "H", "occu": 1}], "xyz": [1.33224, -3.051177, 3.274818], "properties": {}}]}, "smiles": "FC(F)(OC(=C(F)F)F)COC(F)(F)CF", "inchi": "InChI=1S/C6H4F8O2/c7-1-5(11,12)15-2-6(13,14)16-4(10)3(8)9/h1-2H2", "formula_alphabetical": "C6 F8 H4 O2", "chemsys": "C-F-H-O", "energy": -1180.22403061, "esp": {"1": ["F", -0.184695], "2": ["F", -0.208359], "3": ["F", -0.222771], "4": ["F", -0.221485], "5": ["F", -0.233253], "6": ["F", -0.134879], "7": ["F", -0.15472], "8": ["F", -0.149017], "9": ["O", -0.425805], "10": ["O", -0.250441], "11": ["C", -0.058778], "12": ["C", 0.535749], "13": ["C", 0.608343], "14": ["C", 0.043498], "15": ["C", 0.162772], "16": ["C", 0.377293], "17": ["H", 0.147871], "18": ["H", 0.14128], "19": ["H", 0.110105], "20": ["H", 0.117292]}, "dipole_moment": {"X": -0.2412, "Y": 0.603, "Z": 0.227, "Tot": 0.688}, "functional": "B3LYP", "basis": "6-31+G*", "phase": "gas", "tag": "lis", "state": "successful", "wall_time (s)": 13.743213400011882, "version": "0.0.1", "gauss_version": "ES64L-G16RevC.01", "last_updated": "2021-09-14 23:21:04.663000", "polarizability": 85.17, "fluorinated-solvent": "147526123", "run_ids": ["61412e3765809e930c60b42e", "61412e57afc5be6daed16c77"]}