{"_id": "614120f1820dbe60a268bc56", "molecule": {"@module": "pymatgen.core.structure", "@class": "Molecule", "charge": 0, "spin_multiplicity": 1, "sites": [{"name": "F", "species": [{"element": "F", "occu": 1}], "xyz": [1.351769, 0.401683, 0.376569], "properties": {}}, {"name": "F", "species": [{"element": "F", "occu": 1}], "xyz": [3.370002, 0.954567, 1.023829], "properties": {}}, {"name": "F", "species": [{"element": "F", "occu": 1}], "xyz": [2.583694, 0.553637, -3.668109], "properties": {}}, {"name": "O", "species": [{"element": "O", "occu": 1}], "xyz": [3.040501, -1.065019, 0.078634], "properties": {}}, {"name": "C", "species": [{"element": "C", "occu": 1}], "xyz": [2.972707, 0.849018, -1.330731], "properties": {}}, {"name": "C", "species": [{"element": "C", "occu": 1}], "xyz": [2.695754, 0.2434, 0.042489], "properties": {}}, {"name": "C", "species": [{"element": "C", "occu": 1}], "xyz": [2.21553, 0.061051, -2.402158], "properties": {}}, {"name": "C", "species": [{"element": "C", "occu": 1}], "xyz": [2.632318, 2.343444, -1.372574], "properties": {}}, {"name": "C", "species": [{"element": "C", "occu": 1}], "xyz": [2.872513, -1.763854, 1.341965], "properties": {}}, {"name": "C", "species": [{"element": "C", "occu": 1}], "xyz": [3.127326, -3.240438, 1.081513], "properties": {}}, {"name": "C", "species": [{"element": "C", "occu": 1}], "xyz": [2.109418, -3.872474, 0.125631], "properties": {}}, {"name": "H", "species": [{"element": "H", "occu": 1}], "xyz": [4.045968, 0.70677, -1.505756], "properties": {}}, {"name": "H", "species": [{"element": "H", "occu": 1}], "xyz": [2.467697, -1.001888, -2.380749], "properties": {}}, {"name": "H", "species": [{"element": "H", "occu": 1}], "xyz": [1.13256, 0.191429, -2.304257], "properties": {}}, {"name": "H", "species": [{"element": "H", "occu": 1}], "xyz": [3.21423, 2.898531, -0.631479], "properties": {}}, {"name": "H", "species": [{"element": "H", "occu": 1}], "xyz": [2.859733, 2.741193, -2.365328], "properties": {}}, {"name": "H", "species": [{"element": "H", "occu": 1}], "xyz": [1.568296, 2.506862, -1.169422], "properties": {}}, {"name": "H", "species": [{"element": "H", "occu": 1}], "xyz": [3.585375, -1.351216, 2.063261], "properties": {}}, {"name": "H", "species": [{"element": "H", "occu": 1}], "xyz": [1.853498, -1.593867, 1.707054], "properties": {}}, {"name": "H", "species": [{"element": "H", "occu": 1}], "xyz": [4.144747, -3.358384, 0.686477], "properties": {}}, {"name": "H", "species": [{"element": "H", "occu": 1}], "xyz": [3.103131, -3.75257, 2.053093], "properties": {}}, {"name": "H", "species": [{"element": "H", "occu": 1}], "xyz": [2.138163, -3.38487, -0.854482], "properties": {}}, {"name": "H", "species": [{"element": "H", "occu": 1}], "xyz": [2.317044, -4.938614, -0.019747], "properties": {}}, {"name": "H", "species": [{"element": "H", "occu": 1}], "xyz": [1.088948, -3.777892, 0.518488], "properties": {}}]}, "smiles": "FC(F)(OCCC)[C@@H](CF)C", "inchi": "InChI=1S/C7H13F3O/c1-3-4-11-7(9,10)6(2)5-8/h6H,3-5H2,1-2H3/t6-/m1/s1", "formula_alphabetical": "C7 F3 H13 O1", "chemsys": "C-F-H-O", "energy": -649.367690257, "esp": {"1": ["F", -0.218371], "2": ["F", -0.194346], "3": ["F", -0.27389], "4": ["O", -0.353273], "5": ["C", 0.178605], "6": ["C", 0.342312], "7": ["C", 0.052998], "8": ["C", -0.327641], "9": ["C", 0.026203], "10": ["C", 0.121466], "11": ["C", -0.183818], "12": ["H", 0.054977], "13": ["H", 0.084212], "14": ["H", 0.086118], "15": ["H", 0.088126], "16": ["H", 0.104325], "17": ["H", 0.100407], "18": ["H", 0.069445], "19": ["H", 0.091449], "20": ["H", 0.016399], "21": ["H", -0.011063], "22": ["H", 0.04836], "23": ["H", 0.047629], "24": ["H", 0.04937]}, "dipole_moment": {"X": 0.1533, "Y": -1.8394, "Z": 1.4861, "Tot": 2.3697}, "functional": "B3LYP", "basis": "6-31+G*", "phase": "gas", "tag": "lis", "state": "successful", "wall_time (s)": 10.874645765055902, "version": "0.0.1", "gauss_version": "ES64L-G16RevC.01", "last_updated": "2021-09-14 22:23:45.061000", "polarizability": 88.89, "fluorinated-solvent": "58695027", "run_ids": ["614120db20332fdacbee177e", "614120ed10e876a5e3e4bf32"]}