{"_id": "6141107ab3018ec070edd323", "molecule": {"@module": "pymatgen.core.structure", "@class": "Molecule", "charge": 0, "spin_multiplicity": 1, "sites": [{"name": "F", "species": [{"element": "F", "occu": 1}], "xyz": [0.573273, -2.495988, -2.306877], "properties": {}}, {"name": "F", "species": [{"element": "F", "occu": 1}], "xyz": [0.751202, -0.6921, -1.092236], "properties": {}}, {"name": "F", "species": [{"element": "F", "occu": 1}], "xyz": [1.459035, -0.302258, -3.74945], "properties": {}}, {"name": "F", "species": [{"element": "F", "occu": 1}], "xyz": [1.921111, 0.408372, 4.095023], "properties": {}}, {"name": "F", "species": [{"element": "F", "occu": 1}], "xyz": [-0.233411, 0.06524, 3.962835], "properties": {}}, {"name": "F", "species": [{"element": "F", "occu": 1}], "xyz": [1.139466, -1.625466, 4.178965], "properties": {}}, {"name": "O", "species": [{"element": "O", "occu": 1}], "xyz": [2.360961, -2.275356, -0.949144], "properties": {}}, {"name": "O", "species": [{"element": "O", "occu": 1}], "xyz": [2.309309, -0.946631, 1.620521], "properties": {}}, {"name": "C", "species": [{"element": "C", "occu": 1}], "xyz": [1.79953, -2.908217, 0.224314], "properties": {}}, {"name": "C", "species": [{"element": "C", "occu": 1}], "xyz": [2.483932, -2.354173, 1.465388], "properties": {}}, {"name": "C", "species": [{"element": "C", "occu": 1}], "xyz": [1.504095, -1.629278, -1.772705], "properties": {}}, {"name": "C", "species": [{"element": "C", "occu": 1}], "xyz": [1.049574, -0.504672, 2.063772], "properties": {}}, {"name": "C", "species": [{"element": "C", "occu": 1}], "xyz": [2.312324, -0.958972, -2.875878], "properties": {}}, {"name": "C", "species": [{"element": "C", "occu": 1}], "xyz": [0.980134, -0.411433, 3.585607], "properties": {}}, {"name": "H", "species": [{"element": "H", "occu": 1}], "xyz": [0.717414, -2.757018, 0.246268], "properties": {}}, {"name": "H", "species": [{"element": "H", "occu": 1}], "xyz": [1.994282, -3.982694, 0.141566], "properties": {}}, {"name": "H", "species": [{"element": "H", "occu": 1}], "xyz": [2.132183, -2.905411, 2.348168], "properties": {}}, {"name": "H", "species": [{"element": "H", "occu": 1}], "xyz": [3.565018, -2.493704, 1.379467], "properties": {}}, {"name": "H", "species": [{"element": "H", "occu": 1}], "xyz": [0.890478, 0.499967, 1.663501], "properties": {}}, {"name": "H", "species": [{"element": "H", "occu": 1}], "xyz": [0.220325, -1.142069, 1.733257], "properties": {}}, {"name": "H", "species": [{"element": "H", "occu": 1}], "xyz": [2.991832, -0.23106, -2.424796], "properties": {}}, {"name": "H", "species": [{"element": "H", "occu": 1}], "xyz": [2.868004, -1.722633, -3.426554], "properties": {}}]}, "smiles": "FC(F)(OCCOCC(F)(F)F)CF", "inchi": "InChI=1S/C6H8F6O2/c7-3-6(11,12)14-2-1-13-4-5(8,9)10/h1-4H2", "formula_alphabetical": "C6 F6 H8 O2", "chemsys": "C-F-H-O", "energy": -982.990342856, "esp": {"1": ["F", -0.23857], "2": ["F", -0.226259], "3": ["F", -0.238404], "4": ["F", -0.205979], "5": ["F", -0.245846], "6": ["F", -0.206517], "7": ["O", -0.447669], "8": ["O", -0.288279], "9": ["C", 0.191277], "10": ["C", 0.009913], "11": ["C", 0.593374], "12": ["C", -0.317116], "13": ["C", 0.063515], "14": ["C", 0.689119], "15": ["H", 0.057615], "16": ["H", 0.054892], "17": ["H", 0.057543], "18": ["H", 0.116664], "19": ["H", 0.207233], "20": ["H", 0.169377], "21": ["H", 0.104053], "22": ["H", 0.100061]}, "dipole_moment": {"X": 1.4639, "Y": -2.391, "Z": -0.168, "Tot": 2.8086}, "functional": "B3LYP", "basis": "6-31+G*", "phase": "gas", "tag": "lis", "state": "successful", "wall_time (s)": 12.598583976970986, "version": "0.0.1", "gauss_version": "ES64L-G16RevC.01", "last_updated": "2021-09-14 21:13:29.821000", "polarizability": 83.97, "fluorinated-solvent": "117717451", "run_ids": ["6141105cee63547a0d839f24", "61411070fb526cd981f7c008"]}