{"_id": "61412d8499782c0c059a0ed5", "molecule": {"@module": "pymatgen.core.structure", "@class": "Molecule", "charge": 0, "spin_multiplicity": 1, "sites": [{"name": "F", "species": [{"element": "F", "occu": 1}], "xyz": [4.710039, 2.344698, -1.038615], "properties": {}}, {"name": "F", "species": [{"element": "F", "occu": 1}], "xyz": [4.723654, 1.477001, 0.988533], "properties": {}}, {"name": "F", "species": [{"element": "F", "occu": 1}], "xyz": [6.360869, 0.181232, -0.772112], "properties": {}}, {"name": "F", "species": [{"element": "F", "occu": 1}], "xyz": [4.692073, -1.060886, -0.108804], "properties": {}}, {"name": "F", "species": [{"element": "F", "occu": 1}], "xyz": [4.683845, -0.201237, -2.116802], "properties": {}}, {"name": "F", "species": [{"element": "F", "occu": 1}], "xyz": [0.056947, 4.565894, -1.59343], "properties": {}}, {"name": "O", "species": [{"element": "O", "occu": 1}], "xyz": [2.22558, 2.333198, 0.159239], "properties": {}}, {"name": "C", "species": [{"element": "C", "occu": 1}], "xyz": [4.294519, 1.28088, -0.292157], "properties": {}}, {"name": "C", "species": [{"element": "C", "occu": 1}], "xyz": [2.777357, 1.14423, -0.340394], "properties": {}}, {"name": "C", "species": [{"element": "C", "occu": 1}], "xyz": [0.797121, 2.328511, 0.183405], "properties": {}}, {"name": "C", "species": [{"element": "C", "occu": 1}], "xyz": [0.335072, 3.711048, 0.624156], "properties": {}}, {"name": "C", "species": [{"element": "C", "occu": 1}], "xyz": [5.032381, 0.026919, -0.832974], "properties": {}}, {"name": "C", "species": [{"element": "C", "occu": 1}], "xyz": [0.712474, 4.80191, -0.364178], "properties": {}}, {"name": "H", "species": [{"element": "H", "occu": 1}], "xyz": [2.478712, 0.962042, -1.383815], "properties": {}}, {"name": "H", "species": [{"element": "H", "occu": 1}], "xyz": [2.491297, 0.271781, 0.266914], "properties": {}}, {"name": "H", "species": [{"element": "H", "occu": 1}], "xyz": [0.405112, 2.095446, -0.818112], "properties": {}}, {"name": "H", "species": [{"element": "H", "occu": 1}], "xyz": [0.439257, 1.558134, 0.884602], "properties": {}}, {"name": "H", "species": [{"element": "H", "occu": 1}], "xyz": [-0.754346, 3.698544, 0.753274], "properties": {}}, {"name": "H", "species": [{"element": "H", "occu": 1}], "xyz": [0.784251, 3.948804, 1.597417], "properties": {}}, {"name": "H", "species": [{"element": "H", "occu": 1}], "xyz": [0.393296, 5.789781, -0.015619], "properties": {}}, {"name": "H", "species": [{"element": "H", "occu": 1}], "xyz": [1.786923, 4.806531, -0.569351], "properties": {}}]}, "smiles": "FC(F)(COCCCF)C(F)(F)F", "inchi": "InChI=1S/C6H8F6O/c7-2-1-3-13-4-5(8,9)6(10,11)12/h1-4H2", "formula_alphabetical": "C6 F6 H8 O1", "chemsys": "C-F-H-O", "energy": -907.762753321, "esp": {"1": ["F", -0.156062], "2": ["F", -0.170937], "3": ["F", -0.136273], "4": ["F", -0.164855], "5": ["F", -0.172657], "6": ["F", -0.307061], "7": ["O", -0.272674], "8": ["C", 0.236266], "9": ["C", 0.035021], "10": ["C", 0.107687], "11": ["C", -0.161826], "12": ["C", 0.457208], "13": ["C", 0.291753], "14": ["H", 0.088357], "15": ["H", 0.070277], "16": ["H", 0.047116], "17": ["H", 0.040874], "18": ["H", 0.077423], "19": ["H", 0.055875], "20": ["H", 0.017212], "21": ["H", 0.017275]}, "dipole_moment": {"X": -2.3951, "Y": -0.5354, "Z": 1.545, "Tot": 2.9}, "functional": "B3LYP", "basis": "6-31+G*", "phase": "gas", "tag": "lis", "state": "successful", "wall_time (s)": 11.347473149071448, "version": "0.0.1", "gauss_version": "ES64L-G16RevC.01", "last_updated": "2021-09-14 23:17:23.715000", "polarizability": 80.58, "fluorinated-solvent": "88850857", "run_ids": ["61412d6872fcc4b12ed27d78", "61412d7bd25767a244499d87"]}