{"_id": "614120af284c94b9a1073344", "molecule": {"@module": "pymatgen.core.structure", "@class": "Molecule", "charge": 0, "spin_multiplicity": 1, "sites": [{"name": "F", "species": [{"element": "F", "occu": 1}], "xyz": [1.627984, -0.191805, -0.444572], "properties": {}}, {"name": "F", "species": [{"element": "F", "occu": 1}], "xyz": [3.045519, -1.173119, 0.896635], "properties": {}}, {"name": "F", "species": [{"element": "F", "occu": 1}], "xyz": [3.75707, 0.231129, -0.617007], "properties": {}}, {"name": "O", "species": [{"element": "O", "occu": 1}], "xyz": [2.248229, 2.294769, 0.576351], "properties": {}}, {"name": "C", "species": [{"element": "C", "occu": 1}], "xyz": [2.648666, 1.139827, 1.288076], "properties": {}}, {"name": "C", "species": [{"element": "C", "occu": 1}], "xyz": [1.70103, 0.845492, 2.461909], "properties": {}}, {"name": "C", "species": [{"element": "C", "occu": 1}], "xyz": [2.998124, 3.496212, 0.84532], "properties": {}}, {"name": "C", "species": [{"element": "C", "occu": 1}], "xyz": [2.756882, 0.000429, 0.269557], "properties": {}}, {"name": "C", "species": [{"element": "C", "occu": 1}], "xyz": [0.225997, 0.674213, 2.080601], "properties": {}}, {"name": "C", "species": [{"element": "C", "occu": 1}], "xyz": [4.318303, 3.498682, 0.073859], "properties": {}}, {"name": "C", "species": [{"element": "C", "occu": 1}], "xyz": [2.089975, 4.65494, 0.453297], "properties": {}}, {"name": "H", "species": [{"element": "H", "occu": 1}], "xyz": [3.66986, 1.250508, 1.679461], "properties": {}}, {"name": "H", "species": [{"element": "H", "occu": 1}], "xyz": [2.068467, -0.0373, 2.999499], "properties": {}}, {"name": "H", "species": [{"element": "H", "occu": 1}], "xyz": [1.805598, 1.697019, 3.14736], "properties": {}}, {"name": "H", "species": [{"element": "H", "occu": 1}], "xyz": [3.200226, 3.546025, 1.928176], "properties": {}}, {"name": "H", "species": [{"element": "H", "occu": 1}], "xyz": [0.059102, -0.243418, 1.508501], "properties": {}}, {"name": "H", "species": [{"element": "H", "occu": 1}], "xyz": [-0.392555, 0.626429, 2.983943], "properties": {}}, {"name": "H", "species": [{"element": "H", "occu": 1}], "xyz": [-0.115278, 1.51807, 1.472613], "properties": {}}, {"name": "H", "species": [{"element": "H", "occu": 1}], "xyz": [4.121152, 3.449801, -1.002763], "properties": {}}, {"name": "H", "species": [{"element": "H", "occu": 1}], "xyz": [4.88408, 4.413225, 0.288734], "properties": {}}, {"name": "H", "species": [{"element": "H", "occu": 1}], "xyz": [4.946066, 2.641724, 0.340493], "properties": {}}, {"name": "H", "species": [{"element": "H", "occu": 1}], "xyz": [1.159214, 4.626335, 1.02911], "properties": {}}, {"name": "H", "species": [{"element": "H", "occu": 1}], "xyz": [2.589583, 5.613115, 0.636006], "properties": {}}, {"name": "H", "species": [{"element": "H", "occu": 1}], "xyz": [1.838587, 4.590398, -0.611497], "properties": {}}]}, "smiles": "FC(F)(F)[C@@H](OC(C)C)CC", "inchi": "InChI=1S/C7H13F3O/c1-4-6(7(8,9)10)11-5(2)3/h5-6H,4H2,1-3H3/t6-/m0/s1", "formula_alphabetical": "C7 F3 H13 O1", "chemsys": "C-F-H-O", "energy": -649.362424512, "esp": {"1": ["F", -0.197594], "2": ["F", -0.229143], "3": ["F", -0.222888], "4": ["O", -0.478897], "5": ["C", 0.033902], "6": ["C", 0.104698], "7": ["C", 0.645492], "8": ["C", 0.613523], "9": ["C", -0.189487], "10": ["C", -0.502421], "11": ["C", -0.52165], "12": ["H", 0.044365], "13": ["H", -0.004263], "14": ["H", 0.014185], "15": ["H", -0.044124], "16": ["H", 0.060025], "17": ["H", 0.043028], "18": ["H", 0.063164], "19": ["H", 0.144178], "20": ["H", 0.106761], "21": ["H", 0.124761], "22": ["H", 0.133778], "23": ["H", 0.116374], "24": ["H", 0.142232]}, "dipole_moment": {"X": 0.605, "Y": 2.2833, "Z": 2.2802, "Tot": 3.2832}, "functional": "B3LYP", "basis": "6-31+G*", "phase": "gas", "tag": "lis", "state": "successful", "wall_time (s)": 11.093756191898137, "version": "0.0.1", "gauss_version": "ES64L-G16RevC.01", "last_updated": "2021-09-14 22:22:39.412000", "polarizability": 89.6, "fluorinated-solvent": "89055005", "run_ids": ["614120990caff3dd57fbc44d", "614120ab5ec1ce7e9ec9f061"]}