{"_id": "61410eb92ece252ab06fe882", "molecule": {"@module": "pymatgen.core.structure", "@class": "Molecule", "charge": 0, "spin_multiplicity": 1, "sites": [{"name": "F", "species": [{"element": "F", "occu": 1}], "xyz": [3.542296, -0.47678, -0.757231], "properties": {}}, {"name": "F", "species": [{"element": "F", "occu": 1}], "xyz": [1.387512, -0.155299, -0.703492], "properties": {}}, {"name": "F", "species": [{"element": "F", "occu": 1}], "xyz": [4.175833, 3.783568, 0.0947], "properties": {}}, {"name": "F", "species": [{"element": "F", "occu": 1}], "xyz": [3.041972, 4.099149, -1.747231], "properties": {}}, {"name": "F", "species": [{"element": "F", "occu": 1}], "xyz": [2.02517, 4.090211, 0.187801], "properties": {}}, {"name": "F", "species": [{"element": "F", "occu": 1}], "xyz": [3.652492, -2.716838, 1.114557], "properties": {}}, {"name": "O", "species": [{"element": "O", "occu": 1}], "xyz": [2.814092, 2.192518, -0.725382], "properties": {}}, {"name": "O", "species": [{"element": "O", "occu": 1}], "xyz": [2.431565, -0.787859, 1.190126], "properties": {}}, {"name": "C", "species": [{"element": "C", "occu": 1}], "xyz": [2.755115, 1.407623, 0.470536], "properties": {}}, {"name": "C", "species": [{"element": "C", "occu": 1}], "xyz": [2.53148, -0.035505, 0.046762], "properties": {}}, {"name": "C", "species": [{"element": "C", "occu": 1}], "xyz": [3.010598, 3.513114, -0.549339], "properties": {}}, {"name": "C", "species": [{"element": "C", "occu": 1}], "xyz": [2.378128, -2.189242, 1.03595], "properties": {}}, {"name": "H", "species": [{"element": "H", "occu": 1}], "xyz": [1.920308, 1.722997, 1.102025], "properties": {}}, {"name": "H", "species": [{"element": "H", "occu": 1}], "xyz": [3.697196, 1.466541, 1.022009], "properties": {}}, {"name": "H", "species": [{"element": "H", "occu": 1}], "xyz": [1.801258, -2.56792, 1.880148], "properties": {}}, {"name": "H", "species": [{"element": "H", "occu": 1}], "xyz": [1.950605, -2.469155, 0.070304], "properties": {}}]}, "smiles": "FC(F)(OCF)COC(F)(F)F", "inchi": "InChI=1S/C4H4F6O2/c5-2-12-3(6,7)1-11-4(8,9)10/h1-2H2", "formula_alphabetical": "C4 F6 H4 O2", "chemsys": "C-F-H-O", "energy": -904.378977011, "esp": {"1": ["F", -0.203318], "2": ["F", -0.237751], "3": ["F", -0.211748], "4": ["F", -0.18243], "5": ["F", -0.207103], "6": ["F", -0.228834], "7": ["O", -0.32554], "8": ["O", -0.409298], "9": ["C", -0.173069], "10": ["C", 0.697687], "11": ["C", 0.725325], "12": ["C", 0.238354], "13": ["H", 0.149829], "14": ["H", 0.165096], "15": ["H", 0.115296], "16": ["H", 0.087504]}, "dipole_moment": {"X": -1.6284, "Y": -1.3335, "Z": 2.0549, "Tot": 2.9415}, "functional": "B3LYP", "basis": "6-31+G*", "phase": "gas", "tag": "lis", "state": "successful", "wall_time (s)": 8.099912213045172, "version": "0.0.1", "gauss_version": "ES64L-G16RevC.01", "last_updated": "2021-09-14 21:06:00.928000", "polarizability": 61.66, "fluorinated-solvent": "139772588", "run_ids": ["61410e52e4812e3f87fd17be", "61410e8b8dea8ff1ccbf7a42"]}