{"_id": "614118197703d91209423df8", "molecule": {"@module": "pymatgen.core.structure", "@class": "Molecule", "charge": 0, "spin_multiplicity": 1, "sites": [{"name": "F", "species": [{"element": "F", "occu": 1}], "xyz": [0.980244, 0.280055, 0.607203], "properties": {}}, {"name": "F", "species": [{"element": "F", "occu": 1}], "xyz": [2.966803, 0.58017, 1.461666], "properties": {}}, {"name": "F", "species": [{"element": "F", "occu": 1}], "xyz": [1.966747, 0.710217, -1.928528], "properties": {}}, {"name": "F", "species": [{"element": "F", "occu": 1}], "xyz": [2.28766, 2.356406, -0.530543], "properties": {}}, {"name": "F", "species": [{"element": "F", "occu": 1}], "xyz": [2.14547, -1.992894, 2.033039], "properties": {}}, {"name": "F", "species": [{"element": "F", "occu": 1}], "xyz": [0.885102, -2.479847, 0.311313], "properties": {}}, {"name": "F", "species": [{"element": "F", "occu": 1}], "xyz": [4.450717, 0.449369, -3.173734], "properties": {}}, {"name": "F", "species": [{"element": "F", "occu": 1}], "xyz": [4.02897, 2.546034, -2.704982], "properties": {}}, {"name": "F", "species": [{"element": "F", "occu": 1}], "xyz": [4.320688, -3.236687, 0.761145], "properties": {}}, {"name": "F", "species": [{"element": "F", "occu": 1}], "xyz": [6.320913, 2.639611, -1.104705], "properties": {}}, {"name": "O", "species": [{"element": "O", "occu": 1}], "xyz": [2.662649, -1.118036, 0.007169], "properties": {}}, {"name": "O", "species": [{"element": "O", "occu": 1}], "xyz": [4.029855, 1.018596, -1.030127], "properties": {}}, {"name": "C", "species": [{"element": "C", "occu": 1}], "xyz": [2.304675, 0.164917, 0.358822], "properties": {}}, {"name": "C", "species": [{"element": "C", "occu": 1}], "xyz": [2.669252, 1.096418, -0.838015], "properties": {}}, {"name": "C", "species": [{"element": "C", "occu": 1}], "xyz": [2.169765, -2.219028, 0.695754], "properties": {}}, {"name": "C", "species": [{"element": "C", "occu": 1}], "xyz": [4.613355, 1.420248, -2.224691], "properties": {}}, {"name": "C", "species": [{"element": "C", "occu": 1}], "xyz": [3.013518, -3.439449, 0.351688], "properties": {}}, {"name": "C", "species": [{"element": "C", "occu": 1}], "xyz": [6.108477, 1.615699, -2.010813], "properties": {}}, {"name": "H", "species": [{"element": "H", "occu": 1}], "xyz": [2.599944, -4.303102, 0.879537], "properties": {}}, {"name": "H", "species": [{"element": "H", "occu": 1}], "xyz": [2.993744, -3.59426, -0.730358], "properties": {}}, {"name": "H", "species": [{"element": "H", "occu": 1}], "xyz": [6.537981, 0.689914, -1.618701], "properties": {}}, {"name": "H", "species": [{"element": "H", "occu": 1}], "xyz": [6.56003, 1.883019, -2.970208], "properties": {}}]}, "smiles": "FC(F)(OC(F)(F)CF)C(F)(F)OC(F)(F)CF", "inchi": "InChI=1S/C6H4F10O2/c7-1-3(9,10)17-5(13,14)6(15,16)18-4(11,12)2-8/h1-2H2", "formula_alphabetical": "C6 F10 H4 O2", "chemsys": "C-F-H-O", "energy": -1379.96598171, "esp": {"1": ["F", -0.119706], "2": ["F", -0.131917], "3": ["F", -0.111321], "4": ["F", -0.127698], "5": ["F", -0.141998], "6": ["F", -0.200682], "7": ["F", -0.213706], "8": ["F", -0.148772], "9": ["F", -0.217508], "10": ["F", -0.21641], "11": ["O", -0.254848], "12": ["O", -0.256325], "13": ["C", 0.370429], "14": ["C", 0.317459], "15": ["C", 0.42341], "16": ["C", 0.460928], "17": ["C", 0.053673], "18": ["C", 0.066399], "19": ["H", 0.115523], "20": ["H", 0.117506], "21": ["H", 0.108144], "22": ["H", 0.10742]}, "dipole_moment": {"X": 1.4524, "Y": -2.9888, "Z": -1.8016, "Tot": 3.7799}, "functional": "B3LYP", "basis": "6-31+G*", "phase": "gas", "tag": "lis", "state": "successful", "wall_time (s)": 17.209037414053455, "version": "0.0.1", "gauss_version": "ES64L-G16RevC.01", "last_updated": "2021-09-14 21:46:01.397000", "polarizability": 87.48, "fluorinated-solvent": "59194258", "run_ids": ["614117f8c8c1e6449eafad97", "61411815a8ccb9a5504428f4"]}