{"_id": "61411e93220f8f298d4af0d5", "molecule": {"@module": "pymatgen.core.structure", "@class": "Molecule", "charge": 0, "spin_multiplicity": 1, "sites": [{"name": "F", "species": [{"element": "F", "occu": 1}], "xyz": [5.011111, 0.02508, -1.817549], "properties": {}}, {"name": "F", "species": [{"element": "F", "occu": 1}], "xyz": [3.678019, 1.471638, -2.757957], "properties": {}}, {"name": "F", "species": [{"element": "F", "occu": 1}], "xyz": [0.721508, 0.308161, -2.99295], "properties": {}}, {"name": "F", "species": [{"element": "F", "occu": 1}], "xyz": [0.492493, -1.863808, -3.029312], "properties": {}}, {"name": "F", "species": [{"element": "F", "occu": 1}], "xyz": [0.237909, -0.760313, -1.160131], "properties": {}}, {"name": "F", "species": [{"element": "F", "occu": 1}], "xyz": [3.428858, 0.838607, 1.473293], "properties": {}}, {"name": "F", "species": [{"element": "F", "occu": 1}], "xyz": [5.490151, 0.41246, 0.908741], "properties": {}}, {"name": "F", "species": [{"element": "F", "occu": 1}], "xyz": [4.950151, 2.388047, 1.665091], "properties": {}}, {"name": "O", "species": [{"element": "O", "occu": 1}], "xyz": [2.849974, 0.084051, -1.181114], "properties": {}}, {"name": "C", "species": [{"element": "C", "occu": 1}], "xyz": [2.463533, -1.009073, -2.043242], "properties": {}}, {"name": "C", "species": [{"element": "C", "occu": 1}], "xyz": [2.853528, -2.349851, -1.414723], "properties": {}}, {"name": "C", "species": [{"element": "C", "occu": 1}], "xyz": [3.916638, 0.826612, -1.558939], "properties": {}}, {"name": "C", "species": [{"element": "C", "occu": 1}], "xyz": [4.251857, 1.882543, -0.516865], "properties": {}}, {"name": "C", "species": [{"element": "C", "occu": 1}], "xyz": [0.96366, -0.824079, -2.295536], "properties": {}}, {"name": "C", "species": [{"element": "C", "occu": 1}], "xyz": [2.330901, -2.588789, 0.007443], "properties": {}}, {"name": "C", "species": [{"element": "C", "occu": 1}], "xyz": [4.526669, 1.360362, 0.884511], "properties": {}}, {"name": "H", "species": [{"element": "H", "occu": 1}], "xyz": [2.941071, -0.89721, -3.021013], "properties": {}}, {"name": "H", "species": [{"element": "H", "occu": 1}], "xyz": [2.518091, -3.145317, -2.091004], "properties": {}}, {"name": "H", "species": [{"element": "H", "occu": 1}], "xyz": [3.948895, -2.37278, -1.415202], "properties": {}}, {"name": "H", "species": [{"element": "H", "occu": 1}], "xyz": [5.139544, 2.419051, -0.858473], "properties": {}}, {"name": "H", "species": [{"element": "H", "occu": 1}], "xyz": [3.416339, 2.583307, -0.456505], "properties": {}}, {"name": "H", "species": [{"element": "H", "occu": 1}], "xyz": [1.242311, -2.692534, 0.030924], "properties": {}}, {"name": "H", "species": [{"element": "H", "occu": 1}], "xyz": [2.767508, -3.509791, 0.408439], "properties": {}}, {"name": "H", "species": [{"element": "H", "occu": 1}], "xyz": [2.608621, -1.763613, 0.670454], "properties": {}}]}, "smiles": "FC(F)(O[C@@H](CC)C(F)(F)F)CC(F)(F)F", "inchi": "InChI=1S/C7H8F8O/c1-2-4(7(13,14)15)16-6(11,12)3-5(8,9)10/h4H,2-3H2,1H3/t4-/m0/s1", "formula_alphabetical": "C7 F8 H8 O1", "chemsys": "C-F-H-O", "energy": -1145.60850904, "esp": {"1": ["F", -0.241386], "2": ["F", -0.252856], "3": ["F", -0.191138], "4": ["F", -0.193868], "5": ["F", -0.176236], "6": ["F", -0.217234], "7": ["F", -0.211046], "8": ["F", -0.230944], "9": ["O", -0.332596], "10": ["C", -0.016466], "11": ["C", 0.087828], "12": ["C", 0.708635], "13": ["C", -0.556962], "14": ["C", 0.53416], "15": ["C", -0.168414], "16": ["C", 0.716067], "17": ["H", 0.108488], "18": ["H", 0.010968], "19": ["H", 0.037555], "20": ["H", 0.207311], "21": ["H", 0.211451], "22": ["H", 0.060603], "23": ["H", 0.045647], "24": ["H", 0.060433]}, "dipole_moment": {"X": 1.0146, "Y": -0.3427, "Z": -0.5858, "Tot": 1.2206}, "functional": "B3LYP", "basis": "6-31+G*", "phase": "gas", "tag": "lis", "state": "successful", "wall_time (s)": 17.30752545199357, "version": "0.0.1", "gauss_version": "ES64L-G16RevC.01", "last_updated": "2021-09-14 22:13:38.893000", "polarizability": 91.77, "fluorinated-solvent": "91516837", "run_ids": ["61411e72f26a7883e5bc837d", "61411e8ae050bf0ca9a1cd12"]}