{"_id": "613a4c33ba47306dcd7b5443", "molecule": {"@module": "pymatgen.core.structure", "@class": "Molecule", "charge": 0, "spin_multiplicity": 1, "sites": [{"name": "F", "species": [{"element": "F", "occu": 1}], "xyz": [3.431282, -0.872955, -2.156134], "properties": {}}, {"name": "F", "species": [{"element": "F", "occu": 1}], "xyz": [1.409566, -0.078345, -2.550742], "properties": {}}, {"name": "F", "species": [{"element": "F", "occu": 1}], "xyz": [0.82868, 3.850608, 0.823119], "properties": {}}, {"name": "F", "species": [{"element": "F", "occu": 1}], "xyz": [0.905067, 4.732903, -1.19713], "properties": {}}, {"name": "F", "species": [{"element": "F", "occu": 1}], "xyz": [3.148349, 0.151214, -4.606936], "properties": {}}, {"name": "F", "species": [{"element": "F", "occu": 1}], "xyz": [2.36939, 2.056438, -3.82322], "properties": {}}, {"name": "F", "species": [{"element": "F", "occu": 1}], "xyz": [-1.620507, 3.695592, -1.722199], "properties": {}}, {"name": "F", "species": [{"element": "F", "occu": 1}], "xyz": [-1.73063, 2.982041, 0.365572], "properties": {}}, {"name": "F", "species": [{"element": "F", "occu": 1}], "xyz": [4.962815, 2.141978, -4.690383], "properties": {}}, {"name": "F", "species": [{"element": "F", "occu": 1}], "xyz": [4.76473, 2.516838, -2.550992], "properties": {}}, {"name": "F", "species": [{"element": "F", "occu": 1}], "xyz": [5.53636, 0.601035, -3.254875], "properties": {}}, {"name": "F", "species": [{"element": "F", "occu": 1}], "xyz": [-2.995904, 5.36984, -0.140693], "properties": {}}, {"name": "F", "species": [{"element": "F", "occu": 1}], "xyz": [-1.29494, 5.56895, 1.255024], "properties": {}}, {"name": "O", "species": [{"element": "O", "occu": 1}], "xyz": [2.200142, 2.306294, -0.969033], "properties": {}}, {"name": "C", "species": [{"element": "C", "occu": 1}], "xyz": [2.7085, 0.279172, -2.286834], "properties": {}}, {"name": "C", "species": [{"element": "C", "occu": 1}], "xyz": [0.369516, 3.711063, -0.4521], "properties": {}}, {"name": "C", "species": [{"element": "C", "occu": 1}], "xyz": [2.774509, 1.024801, -0.94877], "properties": {}}, {"name": "C", "species": [{"element": "C", "occu": 1}], "xyz": [0.785121, 2.359013, -1.020455], "properties": {}}, {"name": "C", "species": [{"element": "C", "occu": 1}], "xyz": [3.20606, 1.018004, -3.565173], "properties": {}}, {"name": "C", "species": [{"element": "C", "occu": 1}], "xyz": [-1.168176, 3.915216, -0.44853], "properties": {}}, {"name": "C", "species": [{"element": "C", "occu": 1}], "xyz": [4.655843, 1.582862, -3.512824], "properties": {}}, {"name": "C", "species": [{"element": "C", "occu": 1}], "xyz": [-1.638125, 5.328413, -0.038815], "properties": {}}, {"name": "H", "species": [{"element": "H", "occu": 1}], "xyz": [2.295355, 0.362158, -0.212502], "properties": {}}, {"name": "H", "species": [{"element": "H", "occu": 1}], "xyz": [3.822958, 1.155904, -0.674714], "properties": {}}, {"name": "H", "species": [{"element": "H", "occu": 1}], "xyz": [0.416782, 2.271507, -2.047069], "properties": {}}, {"name": "H", "species": [{"element": "H", "occu": 1}], "xyz": [0.3268, 1.573664, -0.405628], "properties": {}}, {"name": "H", "species": [{"element": "H", "occu": 1}], "xyz": [-1.204623, 6.09818, -0.681852], "properties": {}}]}, "smiles": "FC(F)(COCC(F)(F)C(F)(F)C(F)F)C(F)(F)C(F)(F)F", "inchi": "InChI=1S/C8H5F13O/c9-3(10)6(15,16)4(11,12)1-22-2-5(13,14)7(17,18)8(19,20)21/h3H,1-2H2", "formula_alphabetical": "C8 F13 H5 O1", "chemsys": "C-F-H-O", "energy": -1681.0770373, "esp": {"1": ["F", -0.17488], "2": ["F", -0.157634], "3": ["F", -0.147272], "4": ["F", -0.177293], "5": ["F", -0.094004], "6": ["F", -0.095093], "7": ["F", -0.173631], "8": ["F", -0.139335], "9": ["F", -0.151798], "10": ["F", -0.161222], "11": ["F", -0.159273], "12": ["F", -0.198413], "13": ["F", -0.200386], "14": ["O", -0.231846], "15": ["C", 0.330912], "16": ["C", 0.224898], "17": ["C", -0.174308], "18": ["C", 0.024404], "19": ["C", 0.065174], "20": ["C", 0.210451], "21": ["C", 0.544505], "22": ["C", 0.378455], "23": ["H", 0.159271], "24": ["H", 0.161734], "25": ["H", 0.119541], "26": ["H", 0.110762], "27": ["H", 0.106281]}, "dipole_moment": {"X": 0.8239, "Y": -0.645, "Z": 0.37, "Tot": 1.1098}, "functional": "B3LYP", "basis": "6-31+G*", "phase": "gas", "tag": "lis", "state": "successful", "wall_time (s)": 28.883710353053175, "version": "0.0.1", "gauss_version": "ES64L-G16RevC.01", "last_updated": "2021-09-09 18:02:27.275000", "polarizability": 108.09, "fluorinated-solvent": "21019463", "run_ids": ["613a496a8e753609bda114ac", "613a4b65be604ef2c9c0c29a"]}