{"_id": "6141107024846994f221df65", "molecule": {"@module": "pymatgen.core.structure", "@class": "Molecule", "charge": 0, "spin_multiplicity": 1, "sites": [{"name": "F", "species": [{"element": "F", "occu": 1}], "xyz": [2.665766, -2.172071, 2.429277], "properties": {}}, {"name": "F", "species": [{"element": "F", "occu": 1}], "xyz": [1.228014, -1.444032, 0.949977], "properties": {}}, {"name": "F", "species": [{"element": "F", "occu": 1}], "xyz": [0.448606, 3.204269, 1.373559], "properties": {}}, {"name": "F", "species": [{"element": "F", "occu": 1}], "xyz": [2.728709, -3.539799, 0.054152], "properties": {}}, {"name": "F", "species": [{"element": "F", "occu": 1}], "xyz": [3.153989, -1.707179, -1.052223], "properties": {}}, {"name": "F", "species": [{"element": "F", "occu": 1}], "xyz": [4.585214, -2.453488, 0.419138], "properties": {}}, {"name": "O", "species": [{"element": "O", "occu": 1}], "xyz": [3.120804, -0.268944, 1.303787], "properties": {}}, {"name": "C", "species": [{"element": "C", "occu": 1}], "xyz": [3.063462, 2.042087, 1.957666], "properties": {}}, {"name": "C", "species": [{"element": "C", "occu": 1}], "xyz": [2.614557, 0.639338, 2.332211], "properties": {}}, {"name": "C", "species": [{"element": "C", "occu": 1}], "xyz": [2.601834, 2.511151, 0.567631], "properties": {}}, {"name": "C", "species": [{"element": "C", "occu": 1}], "xyz": [2.571049, -1.486199, 1.245979], "properties": {}}, {"name": "C", "species": [{"element": "C", "occu": 1}], "xyz": [1.097513, 2.464238, 0.359323], "properties": {}}, {"name": "C", "species": [{"element": "C", "occu": 1}], "xyz": [3.278518, -2.318041, 0.139572], "properties": {}}, {"name": "H", "species": [{"element": "H", "occu": 1}], "xyz": [2.672948, 2.720676, 2.725582], "properties": {}}, {"name": "H", "species": [{"element": "H", "occu": 1}], "xyz": [4.157887, 2.09203, 2.007646], "properties": {}}, {"name": "H", "species": [{"element": "H", "occu": 1}], "xyz": [1.524858, 0.555023, 2.371247], "properties": {}}, {"name": "H", "species": [{"element": "H", "occu": 1}], "xyz": [3.030664, 0.326211, 3.294185], "properties": {}}, {"name": "H", "species": [{"element": "H", "occu": 1}], "xyz": [2.952778, 3.538109, 0.408859], "properties": {}}, {"name": "H", "species": [{"element": "H", "occu": 1}], "xyz": [3.063455, 1.887933, -0.209065], "properties": {}}, {"name": "H", "species": [{"element": "H", "occu": 1}], "xyz": [0.811123, 2.912073, -0.598147], "properties": {}}, {"name": "H", "species": [{"element": "H", "occu": 1}], "xyz": [0.699084, 1.444953, 0.40793], "properties": {}}]}, "smiles": "FC(F)(OCCCCF)C(F)(F)F", "inchi": "InChI=1S/C6H8F6O/c7-3-1-2-4-13-6(11,12)5(8,9)10/h1-4H2", "formula_alphabetical": "C6 F6 H8 O1", "chemsys": "C-F-H-O", "energy": -907.778549838, "esp": {"1": ["F", -0.158549], "2": ["F", -0.169382], "3": ["F", -0.299955], "4": ["F", -0.162114], "5": ["F", -0.167186], "6": ["F", -0.1695], "7": ["O", -0.251743], "8": ["C", -0.1056], "9": ["C", 0.033076], "10": ["C", 0.009966], "11": ["C", 0.274012], "12": ["C", 0.184357], "13": ["C", 0.523754], "14": ["H", 0.062126], "15": ["H", 0.065016], "16": ["H", 0.111792], "17": ["H", 0.089536], "18": ["H", 0.040075], "19": ["H", 0.00672], "20": ["H", 0.039114], "21": ["H", 0.044484]}, "dipole_moment": {"X": 0.9808, "Y": 1.7328, "Z": 0.1475, "Tot": 1.9965}, "functional": "B3LYP", "basis": "6-31+G*", "phase": "gas", "tag": "lis", "state": "successful", "wall_time (s)": 12.769114585011266, "version": "0.0.1", "gauss_version": "ES64L-G16RevC.01", "last_updated": "2021-09-14 21:13:20.518000", "polarizability": 79.58, "fluorinated-solvent": "152592153", "run_ids": ["614110498ee70aab38bcff71", "61411064bdda67c59e39078d"]}