{"_id": "61410f454423c3df030caefc", "molecule": {"@module": "pymatgen.core.structure", "@class": "Molecule", "charge": 0, "spin_multiplicity": 1, "sites": [{"name": "F", "species": [{"element": "F", "occu": 1}], "xyz": [1.084461, 0.42211, -0.531454], "properties": {}}, {"name": "F", "species": [{"element": "F", "occu": 1}], "xyz": [3.107867, 0.832321, -1.240877], "properties": {}}, {"name": "F", "species": [{"element": "F", "occu": 1}], "xyz": [1.037503, -1.91194, -2.027424], "properties": {}}, {"name": "F", "species": [{"element": "F", "occu": 1}], "xyz": [3.059594, -1.504027, -2.733104], "properties": {}}, {"name": "F", "species": [{"element": "F", "occu": 1}], "xyz": [2.639173, -3.338822, -1.630625], "properties": {}}, {"name": "F", "species": [{"element": "F", "occu": 1}], "xyz": [2.287177, 1.431215, 3.549271], "properties": {}}, {"name": "F", "species": [{"element": "F", "occu": 1}], "xyz": [4.341466, 1.846025, 2.835961], "properties": {}}, {"name": "O", "species": [{"element": "O", "occu": 1}], "xyz": [2.761927, 0.547654, 0.966671], "properties": {}}, {"name": "C", "species": [{"element": "C", "occu": 1}], "xyz": [2.67808, -1.360705, -0.375758], "properties": {}}, {"name": "C", "species": [{"element": "C", "occu": 1}], "xyz": [2.408676, 0.134186, -0.279935], "properties": {}}, {"name": "C", "species": [{"element": "C", "occu": 1}], "xyz": [2.345311, -2.013907, -1.706718], "properties": {}}, {"name": "C", "species": [{"element": "C", "occu": 1}], "xyz": [2.577965, 1.940138, 1.247472], "properties": {}}, {"name": "C", "species": [{"element": "C", "occu": 1}], "xyz": [3.023265, 2.188121, 2.673941], "properties": {}}, {"name": "H", "species": [{"element": "H", "occu": 1}], "xyz": [3.738582, -1.527027, -0.174569], "properties": {}}, {"name": "H", "species": [{"element": "H", "occu": 1}], "xyz": [2.093971, -1.860188, 0.400217], "properties": {}}, {"name": "H", "species": [{"element": "H", "occu": 1}], "xyz": [3.185501, 2.551061, 0.571648], "properties": {}}, {"name": "H", "species": [{"element": "H", "occu": 1}], "xyz": [1.522554, 2.21497, 1.149404], "properties": {}}, {"name": "H", "species": [{"element": "H", "occu": 1}], "xyz": [2.908107, 3.241126, 2.95465], "properties": {}}]}, "smiles": "FC(F)(OCC(F)F)CC(F)(F)F", "inchi": "InChI=1S/C5H5F7O/c6-3(7)1-13-5(11,12)2-4(8,9)10/h3H,1-2H2", "formula_alphabetical": "C5 F7 H5 O1", "chemsys": "C-F-H-O", "energy": -967.721339613, "esp": {"1": ["F", -0.224796], "2": ["F", -0.225457], "3": ["F", -0.223362], "4": ["F", -0.223018], "5": ["F", -0.240081], "6": ["F", -0.232912], "7": ["F", -0.233091], "8": ["O", -0.284708], "9": ["C", -0.557911], "10": ["C", 0.655353], "11": ["C", 0.754268], "12": ["C", -0.155253], "13": ["C", 0.445024], "14": ["H", 0.207675], "15": ["H", 0.208886], "16": ["H", 0.133025], "17": ["H", 0.133677], "18": ["H", 0.062681]}, "dipole_moment": {"X": 0.0141, "Y": 2.3454, "Z": 1.3866, "Tot": 2.7247}, "functional": "B3LYP", "basis": "6-31+G*", "phase": "gas", "tag": "lis", "state": "successful", "wall_time (s)": 10.262396981939673, "version": "0.0.1", "gauss_version": "ES64L-G16RevC.01", "last_updated": "2021-09-14 21:08:21.620000", "polarizability": 69.22, "fluorinated-solvent": "58114498", "run_ids": ["61410efe3d50dd611a588ca5", "61410f2b020b80b3ddf4b3ef"]}