{"_id": "613a4e64ab5bfcd27b6654f7", "molecule": {"@module": "pymatgen.core.structure", "@class": "Molecule", "charge": 0, "spin_multiplicity": 1, "sites": [{"name": "F", "species": [{"element": "F", "occu": 1}], "xyz": [2.349195, 1.42209, -3.019995], "properties": {}}, {"name": "F", "species": [{"element": "F", "occu": 1}], "xyz": [0.963468, 1.349522, -1.324488], "properties": {}}, {"name": "O", "species": [{"element": "O", "occu": 1}], "xyz": [2.802479, 0.038511, -1.293203], "properties": {}}, {"name": "C", "species": [{"element": "C", "occu": 1}], "xyz": [2.785911, -2.358429, -1.260333], "properties": {}}, {"name": "C", "species": [{"element": "C", "occu": 1}], "xyz": [2.171344, -1.121115, -1.897149], "properties": {}}, {"name": "C", "species": [{"element": "C", "occu": 1}], "xyz": [2.31631, 1.254463, -1.638768], "properties": {}}, {"name": "C", "species": [{"element": "C", "occu": 1}], "xyz": [2.499552, -2.474653, 0.240932], "properties": {}}, {"name": "C", "species": [{"element": "C", "occu": 1}], "xyz": [3.080604, 2.36577, -0.964519], "properties": {}}, {"name": "H", "species": [{"element": "H", "occu": 1}], "xyz": [2.385235, -3.232973, -1.791146], "properties": {}}, {"name": "H", "species": [{"element": "H", "occu": 1}], "xyz": [3.868724, -2.346516, -1.441072], "properties": {}}, {"name": "H", "species": [{"element": "H", "occu": 1}], "xyz": [1.092103, -1.073401, -1.712148], "properties": {}}, {"name": "H", "species": [{"element": "H", "occu": 1}], "xyz": [2.350413, -1.093252, -2.977164], "properties": {}}, {"name": "H", "species": [{"element": "H", "occu": 1}], "xyz": [1.419549, -2.512045, 0.43333], "properties": {}}, {"name": "H", "species": [{"element": "H", "occu": 1}], "xyz": [2.947441, -3.384575, 0.656646], "properties": {}}, {"name": "H", "species": [{"element": "H", "occu": 1}], "xyz": [2.907495, -1.615328, 0.783204], "properties": {}}, {"name": "H", "species": [{"element": "H", "occu": 1}], "xyz": [4.130426, 2.315063, -1.262626], "properties": {}}, {"name": "H", "species": [{"element": "H", "occu": 1}], "xyz": [2.656943, 3.326427, -1.265649], "properties": {}}, {"name": "H", "species": [{"element": "H", "occu": 1}], "xyz": [3.002856, 2.251591, 0.119268], "properties": {}}]}, "smiles": "FC(F)(OCCC)C", "inchi": "InChI=1S/C5H10F2O/c1-3-4-8-5(2,6)7/h3-4H2,1-2H3", "formula_alphabetical": "C5 F2 H10 O1", "chemsys": "C-F-H-O", "energy": -471.502484401, "esp": {"1": ["F", -0.272002], "2": ["F", -0.27931], "3": ["O", -0.364772], "4": ["C", 0.12938], "5": ["C", -0.019804], "6": ["C", 0.718731], "7": ["C", -0.18058], "8": ["C", -0.530447], "9": ["H", -0.01051], "10": ["H", 0.011327], "11": ["H", 0.089469], "12": ["H", 0.073154], "13": ["H", 0.05233], "14": ["H", 0.041748], "15": ["H", 0.049472], "16": ["H", 0.159009], "17": ["H", 0.167044], "18": ["H", 0.165762]}, "dipole_moment": {"X": 0.9521, "Y": -0.9341, "Z": 0.7324, "Tot": 1.5217}, "functional": "B3LYP", "basis": "6-31+G*", "phase": "gas", "tag": "lis", "state": "successful", "wall_time (s)": 6.722926051006652, "version": "0.0.1", "gauss_version": "ES64L-G16RevC.01", "last_updated": "2021-09-09 18:11:48.610000", "polarizability": 65.68, "fluorinated-solvent": "20806747", "run_ids": ["613a4a3382e6e70a887feb06", "613a4e5ce4836e28c548d31b"]}