{"_id": "61411fbaf345cfb3ee090359", "molecule": {"@module": "pymatgen.core.structure", "@class": "Molecule", "charge": 0, "spin_multiplicity": 1, "sites": [{"name": "F", "species": [{"element": "F", "occu": 1}], "xyz": [1.393311, 0.154636, 0.561966], "properties": {}}, {"name": "F", "species": [{"element": "F", "occu": 1}], "xyz": [3.494736, -0.242468, 1.00181], "properties": {}}, {"name": "F", "species": [{"element": "F", "occu": 1}], "xyz": [0.815304, -2.341268, -0.867617], "properties": {}}, {"name": "F", "species": [{"element": "F", "occu": 1}], "xyz": [2.934761, -3.2161, -2.533215], "properties": {}}, {"name": "O", "species": [{"element": "O", "occu": 1}], "xyz": [2.636839, -0.986701, -0.941642], "properties": {}}, {"name": "C", "species": [{"element": "C", "occu": 1}], "xyz": [3.02499, 1.349844, -0.706605], "properties": {}}, {"name": "C", "species": [{"element": "C", "occu": 1}], "xyz": [2.07012, 1.774601, -1.830136], "properties": {}}, {"name": "C", "species": [{"element": "C", "occu": 1}], "xyz": [2.627087, 0.053371, -0.040851], "properties": {}}, {"name": "C", "species": [{"element": "C", "occu": 1}], "xyz": [2.503564, 3.09925, -2.467791], "properties": {}}, {"name": "C", "species": [{"element": "C", "occu": 1}], "xyz": [2.148262, -2.226778, -0.500129], "properties": {}}, {"name": "C", "species": [{"element": "C", "occu": 1}], "xyz": [2.95064, -3.338811, -1.14802], "properties": {}}, {"name": "H", "species": [{"element": "H", "occu": 1}], "xyz": [3.064647, 2.108719, 0.082969], "properties": {}}, {"name": "H", "species": [{"element": "H", "occu": 1}], "xyz": [4.042802, 1.215139, -1.089918], "properties": {}}, {"name": "H", "species": [{"element": "H", "occu": 1}], "xyz": [2.035204, 0.984858, -2.589343], "properties": {}}, {"name": "H", "species": [{"element": "H", "occu": 1}], "xyz": [1.055539, 1.868772, -1.424337], "properties": {}}, {"name": "H", "species": [{"element": "H", "occu": 1}], "xyz": [2.194713, -2.306008, 0.591314], "properties": {}}, {"name": "H", "species": [{"element": "H", "occu": 1}], "xyz": [3.508059, 3.020715, -2.902915], "properties": {}}, {"name": "H", "species": [{"element": "H", "occu": 1}], "xyz": [1.815034, 3.392014, -3.268458], "properties": {}}, {"name": "H", "species": [{"element": "H", "occu": 1}], "xyz": [2.521766, 3.910483, -1.728749], "properties": {}}, {"name": "H", "species": [{"element": "H", "occu": 1}], "xyz": [3.990034, -3.282751, -0.807109], "properties": {}}, {"name": "H", "species": [{"element": "H", "occu": 1}], "xyz": [2.511618, -4.306166, -0.882935], "properties": {}}]}, "smiles": "FC(F)(O[C@@H](F)CF)CCC", "inchi": "InChI=1S/C6H10F4O/c1-2-3-6(9,10)11-5(8)4-7/h5H,2-4H2,1H3/t5-/m1/s1", "formula_alphabetical": "C6 F4 H10 O1", "chemsys": "C-F-H-O", "energy": -709.295590893, "esp": {"1": ["F", -0.206122], "2": ["F", -0.245777], "3": ["F", -0.2397], "4": ["F", -0.214802], "5": ["O", -0.30401], "6": ["C", -0.310333], "7": ["C", 0.287727], "8": ["C", 0.502305], "9": ["C", -0.327326], "10": ["C", 0.325901], "11": ["C", 0.036243], "12": ["H", 0.121291], "13": ["H", 0.114395], "14": ["H", -0.015922], "15": ["H", -0.019201], "16": ["H", 0.080059], "17": ["H", 0.078281], "18": ["H", 0.075945], "19": ["H", 0.076099], "20": ["H", 0.087233], "21": ["H", 0.097715]}, "dipole_moment": {"X": 1.6419, "Y": 0.3793, "Z": 0.9045, "Tot": 1.9126}, "functional": "B3LYP", "basis": "6-31+G*", "phase": "gas", "tag": "lis", "state": "successful", "wall_time (s)": 9.59648472093977, "version": "0.0.1", "gauss_version": "ES64L-G16RevC.01", "last_updated": "2021-09-14 22:18:34.203000", "polarizability": 78.48, "fluorinated-solvent": "57667468", "run_ids": ["61411fa4a3cc5f81ef845189", "61411fb4c68a714062e035d0"]}