{"_id": "61410cfea417defeba940a3e", "molecule": {"@module": "pymatgen.core.structure", "@class": "Molecule", "charge": 0, "spin_multiplicity": 1, "sites": [{"name": "F", "species": [{"element": "F", "occu": 1}], "xyz": [4.826016, -0.10118, 1.290839], "properties": {}}, {"name": "F", "species": [{"element": "F", "occu": 1}], "xyz": [4.891254, 1.056092, -0.593982], "properties": {}}, {"name": "F", "species": [{"element": "F", "occu": 1}], "xyz": [-0.86491, 1.372398, 3.44099], "properties": {}}, {"name": "O", "species": [{"element": "O", "occu": 1}], "xyz": [2.3812, 1.227826, 1.931409], "properties": {}}, {"name": "C", "species": [{"element": "C", "occu": 1}], "xyz": [2.906258, 1.108266, 0.626192], "properties": {}}, {"name": "C", "species": [{"element": "C", "occu": 1}], "xyz": [0.962997, 1.171628, 1.978183], "properties": {}}, {"name": "C", "species": [{"element": "C", "occu": 1}], "xyz": [4.427559, 1.091705, 0.714878], "properties": {}}, {"name": "C", "species": [{"element": "C", "occu": 1}], "xyz": [0.548392, 1.295547, 3.440726], "properties": {}}, {"name": "C", "species": [{"element": "C", "occu": 1}], "xyz": [5.073895, 2.239353, 1.451407], "properties": {}}, {"name": "C", "species": [{"element": "C", "occu": 1}], "xyz": [0.98128, 0.129904, 4.306039], "properties": {}}, {"name": "H", "species": [{"element": "H", "occu": 1}], "xyz": [2.601161, 1.956815, -0.0055], "properties": {}}, {"name": "H", "species": [{"element": "H", "occu": 1}], "xyz": [2.583018, 0.173826, 0.14416], "properties": {}}, {"name": "H", "species": [{"element": "H", "occu": 1}], "xyz": [0.518284, 1.995213, 1.398434], "properties": {}}, {"name": "H", "species": [{"element": "H", "occu": 1}], "xyz": [0.595854, 0.218134, 1.565851], "properties": {}}, {"name": "H", "species": [{"element": "H", "occu": 1}], "xyz": [0.912149, 2.247535, 3.845115], "properties": {}}, {"name": "H", "species": [{"element": "H", "occu": 1}], "xyz": [4.719176, 2.25415, 2.484427], "properties": {}}, {"name": "H", "species": [{"element": "H", "occu": 1}], "xyz": [6.159306, 2.108927, 1.433485], "properties": {}}, {"name": "H", "species": [{"element": "H", "occu": 1}], "xyz": [4.813662, 3.185446, 0.967678], "properties": {}}, {"name": "H", "species": [{"element": "H", "occu": 1}], "xyz": [2.073507, 0.052527, 4.298749], "properties": {}}, {"name": "H", "species": [{"element": "H", "occu": 1}], "xyz": [0.639652, 0.270743, 5.336426], "properties": {}}, {"name": "H", "species": [{"element": "H", "occu": 1}], "xyz": [0.561062, -0.806045, 3.920396], "properties": {}}]}, "smiles": "FC(F)(COC[C@@H](F)C)C", "inchi": "InChI=1S/C6H11F3O/c1-5(7)3-10-4-6(2,8)9/h5H,3-4H2,1-2H3/t5-/m0/s1", "formula_alphabetical": "C6 F3 H11 O1", "chemsys": "C-F-H-O", "energy": -610.043159963, "esp": {"1": ["F", -0.261704], "2": ["F", -0.299776], "3": ["F", -0.335662], "4": ["O", -0.288537], "5": ["C", -0.119345], "6": ["C", -0.120175], "7": ["C", 0.631116], "8": ["C", 0.420156], "9": ["C", -0.457059], "10": ["C", -0.357184], "11": ["H", 0.10324], "12": ["H", 0.109209], "13": ["H", 0.095284], "14": ["H", 0.112486], "15": ["H", 0.029814], "16": ["H", 0.126258], "17": ["H", 0.15432], "18": ["H", 0.140756], "19": ["H", 0.093808], "20": ["H", 0.106635], "21": ["H", 0.116362]}, "dipole_moment": {"X": 0.0874, "Y": 1.405, "Z": 0.2683, "Tot": 1.433}, "functional": "B3LYP", "basis": "6-31+G*", "phase": "gas", "tag": "lis", "state": "successful", "wall_time (s)": 9.393971842015162, "version": "0.0.1", "gauss_version": "ES64L-G16RevC.01", "last_updated": "2021-09-14 20:58:37.945000", "polarizability": 78.1, "fluorinated-solvent": "87668638", "run_ids": ["61410ce09125d9edc56748b2", "61410cf56b5a541c58a55cad"]}