{"_id": "6141264ad60e479de5cf3cb2", "molecule": {"@module": "pymatgen.core.structure", "@class": "Molecule", "charge": 0, "spin_multiplicity": 1, "sites": [{"name": "F", "species": [{"element": "F", "occu": 1}], "xyz": [3.177593, -0.593319, -0.632863], "properties": {}}, {"name": "F", "species": [{"element": "F", "occu": 1}], "xyz": [1.083507, -0.086601, -0.165399], "properties": {}}, {"name": "F", "species": [{"element": "F", "occu": 1}], "xyz": [1.886421, 2.394519, 0.74897], "properties": {}}, {"name": "F", "species": [{"element": "F", "occu": 1}], "xyz": [3.983488, 1.887164, 0.280377], "properties": {}}, {"name": "F", "species": [{"element": "F", "occu": 1}], "xyz": [3.737671, -2.017599, 3.438473], "properties": {}}, {"name": "F", "species": [{"element": "F", "occu": 1}], "xyz": [1.665907, -1.515614, 3.908521], "properties": {}}, {"name": "F", "species": [{"element": "F", "occu": 1}], "xyz": [3.424775, -4.478752, 4.677142], "properties": {}}, {"name": "F", "species": [{"element": "F", "occu": 1}], "xyz": [1.356694, -3.976642, 5.150664], "properties": {}}, {"name": "F", "species": [{"element": "F", "occu": 1}], "xyz": [1.800903, -5.729151, 3.929858], "properties": {}}, {"name": "O", "species": [{"element": "O", "occu": 1}], "xyz": [2.300161, -1.62293, 1.75], "properties": {}}, {"name": "C", "species": [{"element": "C", "occu": 1}], "xyz": [2.383684, 0.159909, 0.192869], "properties": {}}, {"name": "C", "species": [{"element": "C", "occu": 1}], "xyz": [2.613708, -0.228421, 1.644211], "properties": {}}, {"name": "C", "species": [{"element": "C", "occu": 1}], "xyz": [2.679277, 1.652292, -0.100641], "properties": {}}, {"name": "C", "species": [{"element": "C", "occu": 1}], "xyz": [2.44673, -2.175198, 2.985606], "properties": {}}, {"name": "C", "species": [{"element": "C", "occu": 1}], "xyz": [2.068646, -3.646599, 2.890793], "properties": {}}, {"name": "C", "species": [{"element": "C", "occu": 1}], "xyz": [2.463963, 2.081075, -1.52848], "properties": {}}, {"name": "C", "species": [{"element": "C", "occu": 1}], "xyz": [2.169938, -4.444861, 4.179865], "properties": {}}, {"name": "H", "species": [{"element": "H", "occu": 1}], "xyz": [3.659213, -0.045962, 1.904143], "properties": {}}, {"name": "H", "species": [{"element": "H", "occu": 1}], "xyz": [1.956798, 0.36555, 2.28422], "properties": {}}, {"name": "H", "species": [{"element": "H", "occu": 1}], "xyz": [1.037539, -3.709047, 2.536274], "properties": {}}, {"name": "H", "species": [{"element": "H", "occu": 1}], "xyz": [2.720743, -4.116822, 2.151584], "properties": {}}, {"name": "H", "species": [{"element": "H", "occu": 1}], "xyz": [3.117546, 1.508253, -2.190171], "properties": {}}, {"name": "H", "species": [{"element": "H", "occu": 1}], "xyz": [1.42191, 1.916736, -1.811737], "properties": {}}, {"name": "H", "species": [{"element": "H", "occu": 1}], "xyz": [2.702899, 3.144939, -1.60637], "properties": {}}]}, "smiles": "FC(F)(COC(F)(F)CC(F)(F)F)C(F)(F)C", "inchi": "InChI=1S/C7H7F9O/c1-4(8,9)5(10,11)3-17-7(15,16)2-6(12,13)14/h2-3H2,1H3", "formula_alphabetical": "C7 F9 H7 O1", "chemsys": "C-F-H-O", "energy": -1244.84829168, "esp": {"1": ["F", -0.204489], "2": ["F", -0.203539], "3": ["F", -0.239678], "4": ["F", -0.237038], "5": ["F", -0.232283], "6": ["F", -0.235647], "7": ["F", -0.213301], "8": ["F", -0.211949], "9": ["F", -0.229457], "10": ["O", -0.329908], "11": ["C", 0.397916], "12": ["C", -0.114242], "13": ["C", 0.48183], "14": ["C", 0.70153], "15": ["C", -0.524828], "16": ["C", -0.470134], "17": ["C", 0.70307], "18": ["H", 0.135569], "19": ["H", 0.140024], "20": ["H", 0.199563], "21": ["H", 0.200923], "22": ["H", 0.155121], "23": ["H", 0.154042], "24": ["H", 0.176905]}, "dipole_moment": {"X": -0.3663, "Y": 1.5453, "Z": -3.2589, "Tot": 3.6252}, "functional": "B3LYP", "basis": "6-31+G*", "phase": "gas", "tag": "lis", "state": "successful", "wall_time (s)": 16.70590057608206, "version": "0.0.1", "gauss_version": "ES64L-G16RevC.01", "last_updated": "2021-09-14 22:46:34.272000", "polarizability": 93.55, "fluorinated-solvent": "58114508", "run_ids": ["6141262ff7606047cce99566", "614126469681c905cccbed47"]}