{"_id": "61410dd10cb3b80362d1b3ba", "molecule": {"@module": "pymatgen.core.structure", "@class": "Molecule", "charge": 0, "spin_multiplicity": 1, "sites": [{"name": "F", "species": [{"element": "F", "occu": 1}], "xyz": [0.849801, 0.665867, -0.158838], "properties": {}}, {"name": "F", "species": [{"element": "F", "occu": 1}], "xyz": [2.099345, -1.039502, -0.707129], "properties": {}}, {"name": "F", "species": [{"element": "F", "occu": 1}], "xyz": [2.935687, 0.977634, -0.69118], "properties": {}}, {"name": "F", "species": [{"element": "F", "occu": 1}], "xyz": [-0.416249, -0.60097, 1.859247], "properties": {}}, {"name": "F", "species": [{"element": "F", "occu": 1}], "xyz": [0.062683, -2.164239, 3.300879], "properties": {}}, {"name": "F", "species": [{"element": "F", "occu": 1}], "xyz": [0.541575, -0.086537, 3.75161], "properties": {}}, {"name": "F", "species": [{"element": "F", "occu": 1}], "xyz": [3.548936, 2.316368, 5.929653], "properties": {}}, {"name": "F", "species": [{"element": "F", "occu": 1}], "xyz": [5.018553, 3.230964, 4.600217], "properties": {}}, {"name": "F", "species": [{"element": "F", "occu": 1}], "xyz": [3.347469, 4.41526, 5.358977], "properties": {}}, {"name": "O", "species": [{"element": "O", "occu": 1}], "xyz": [2.384418, 1.194567, 2.036714], "properties": {}}, {"name": "C", "species": [{"element": "C", "occu": 1}], "xyz": [2.547288, -0.051126, 1.405643], "properties": {}}, {"name": "C", "species": [{"element": "C", "occu": 1}], "xyz": [1.881612, -1.237114, 2.140018], "properties": {}}, {"name": "C", "species": [{"element": "C", "occu": 1}], "xyz": [3.220032, 1.412239, 3.172007], "properties": {}}, {"name": "C", "species": [{"element": "C", "occu": 1}], "xyz": [2.081957, 0.149305, -0.046891], "properties": {}}, {"name": "C", "species": [{"element": "C", "occu": 1}], "xyz": [2.856735, 2.795145, 3.701884], "properties": {}}, {"name": "C", "species": [{"element": "C", "occu": 1}], "xyz": [0.510287, -1.003111, 2.750868], "properties": {}}, {"name": "C", "species": [{"element": "C", "occu": 1}], "xyz": [3.691709, 3.190238, 4.897828], "properties": {}}, {"name": "H", "species": [{"element": "H", "occu": 1}], "xyz": [3.615119, -0.302614, 1.306335], "properties": {}}, {"name": "H", "species": [{"element": "H", "occu": 1}], "xyz": [1.798901, -2.089653, 1.460716], "properties": {}}, {"name": "H", "species": [{"element": "H", "occu": 1}], "xyz": [2.525609, -1.548957, 2.967425], "properties": {}}, {"name": "H", "species": [{"element": "H", "occu": 1}], "xyz": [3.037592, 0.6524, 3.94196], "properties": {}}, {"name": "H", "species": [{"element": "H", "occu": 1}], "xyz": [4.277238, 1.369041, 2.872666], "properties": {}}, {"name": "H", "species": [{"element": "H", "occu": 1}], "xyz": [3.006073, 3.547806, 2.922211], "properties": {}}, {"name": "H", "species": [{"element": "H", "occu": 1}], "xyz": [1.804981, 2.81349, 4.001541], "properties": {}}]}, "smiles": "FC(F)(F)[C@@H](OCCC(F)(F)F)CC(F)(F)F", "inchi": "InChI=1S/C7H7F9O/c8-5(9,10)1-2-17-4(7(14,15)16)3-6(11,12)13/h4H,1-3H2/t4-/m0/s1", "formula_alphabetical": "C7 F9 H7 O1", "chemsys": "C-F-H-O", "energy": -1244.84354547, "esp": {"1": ["F", -0.152664], "2": ["F", -0.202048], "3": ["F", -0.194331], "4": ["F", -0.197391], "5": ["F", -0.235008], "6": ["F", -0.196991], "7": ["F", -0.206213], "8": ["F", -0.213078], "9": ["F", -0.204972], "10": ["O", -0.40749], "11": ["C", 0.151909], "12": ["C", -0.417814], "13": ["C", 0.236775], "14": ["C", 0.519997], "15": ["C", -0.356278], "16": ["C", 0.667308], "17": ["C", 0.59026], "18": ["H", 0.08584], "19": ["H", 0.167255], "20": ["H", 0.161804], "21": ["H", 0.032794], "22": ["H", 0.043692], "23": ["H", 0.162483], "24": ["H", 0.164163]}, "dipole_moment": {"X": 1.9972, "Y": -1.7313, "Z": -0.1661, "Tot": 2.6484}, "functional": "B3LYP", "basis": "6-31+G*", "phase": "gas", "tag": "lis", "state": "successful", "wall_time (s)": 19.689276841003448, "version": "0.0.1", "gauss_version": "ES64L-G16RevC.01", "last_updated": "2021-09-14 21:02:08.764000", "polarizability": 93.05, "fluorinated-solvent": "150974595", "run_ids": ["61410d892c5a29e0d426b60e", "61410db451f68b750b21da78"]}