{"_id": "61410be1c400a9d9e8b1fddb", "molecule": {"@module": "pymatgen.core.structure", "@class": "Molecule", "charge": 0, "spin_multiplicity": 1, "sites": [{"name": "F", "species": [{"element": "F", "occu": 1}], "xyz": [4.629894, -2.959827, 0.694698], "properties": {}}, {"name": "F", "species": [{"element": "F", "occu": 1}], "xyz": [5.105716, -0.84271, 0.459263], "properties": {}}, {"name": "F", "species": [{"element": "F", "occu": 1}], "xyz": [4.434904, -2.01113, -1.258681], "properties": {}}, {"name": "O", "species": [{"element": "O", "occu": 1}], "xyz": [1.212778, -1.14269, 2.123254], "properties": {}}, {"name": "C", "species": [{"element": "C", "occu": 1}], "xyz": [2.793506, -1.462286, 0.382073], "properties": {}}, {"name": "C", "species": [{"element": "C", "occu": 1}], "xyz": [2.603737, -1.293783, 1.895458], "properties": {}}, {"name": "C", "species": [{"element": "C", "occu": 1}], "xyz": [4.237786, -1.816273, 0.069917], "properties": {}}, {"name": "C", "species": [{"element": "C", "occu": 1}], "xyz": [2.347524, -0.216248, -0.395039], "properties": {}}, {"name": "C", "species": [{"element": "C", "occu": 1}], "xyz": [0.835394, -1.099069, 3.499513], "properties": {}}, {"name": "C", "species": [{"element": "C", "occu": 1}], "xyz": [1.282489, 0.171336, 4.230702], "properties": {}}, {"name": "C", "species": [{"element": "C", "occu": 1}], "xyz": [0.81452, 1.453333, 3.534371], "properties": {}}, {"name": "H", "species": [{"element": "H", "occu": 1}], "xyz": [2.201583, -2.328559, 0.062667], "properties": {}}, {"name": "H", "species": [{"element": "H", "occu": 1}], "xyz": [2.984947, -2.173939, 2.435868], "properties": {}}, {"name": "H", "species": [{"element": "H", "occu": 1}], "xyz": [3.163399, -0.411761, 2.24092], "properties": {}}, {"name": "H", "species": [{"element": "H", "occu": 1}], "xyz": [2.445936, -0.365054, -1.474364], "properties": {}}, {"name": "H", "species": [{"element": "H", "occu": 1}], "xyz": [1.300874, -0.006805, -0.161598], "properties": {}}, {"name": "H", "species": [{"element": "H", "occu": 1}], "xyz": [2.946964, 0.655402, -0.108638], "properties": {}}, {"name": "H", "species": [{"element": "H", "occu": 1}], "xyz": [-0.258688, -1.156931, 3.485619], "properties": {}}, {"name": "H", "species": [{"element": "H", "occu": 1}], "xyz": [1.217708, -1.995286, 4.016763], "properties": {}}, {"name": "H", "species": [{"element": "H", "occu": 1}], "xyz": [0.877267, 0.121762, 5.251211], "properties": {}}, {"name": "H", "species": [{"element": "H", "occu": 1}], "xyz": [2.375312, 0.179399, 4.339979], "properties": {}}, {"name": "H", "species": [{"element": "H", "occu": 1}], "xyz": [-0.279828, 1.480215, 3.455189], "properties": {}}, {"name": "H", "species": [{"element": "H", "occu": 1}], "xyz": [1.135931, 2.344125, 4.086206], "properties": {}}, {"name": "H", "species": [{"element": "H", "occu": 1}], "xyz": [1.218757, 1.515818, 2.518141], "properties": {}}]}, "smiles": "FC(F)(F)[C@@H](COCCC)C", "inchi": "InChI=1S/C7H13F3O/c1-3-4-11-5-6(2)7(8,9)10/h6H,3-5H2,1-2H3/t6-/m1/s1", "formula_alphabetical": "C7 F3 H13 O1", "chemsys": "C-F-H-O", "energy": -649.36204318, "esp": {"1": ["F", -0.223543], "2": ["F", -0.206836], "3": ["F", -0.199445], "4": ["O", -0.296348], "5": ["C", -0.015005], "6": ["C", -0.102952], "7": ["C", 0.538302], "8": ["C", -0.29844], "9": ["C", -0.102167], "10": ["C", 0.20663], "11": ["C", -0.215544], "12": ["H", 0.106616], "13": ["H", 0.110211], "14": ["H", 0.118222], "15": ["H", 0.09349], "16": ["H", 0.102123], "17": ["H", 0.103149], "18": ["H", 0.102689], "19": ["H", 0.064074], "20": ["H", -0.022385], "21": ["H", -0.027551], "22": ["H", 0.053504], "23": ["H", 0.043151], "24": ["H", 0.068054]}, "dipole_moment": {"X": -1.7642, "Y": 0.8226, "Z": 1.7587, "Tot": 2.6234}, "functional": "B3LYP", "basis": "6-31+G*", "phase": "gas", "tag": "lis", "state": "successful", "wall_time (s)": 10.847305102972314, "version": "0.0.1", "gauss_version": "ES64L-G16RevC.01", "last_updated": "2021-09-14 20:53:53.194000", "polarizability": 89.23, "fluorinated-solvent": "142533745", "run_ids": ["61410a89e6818643a0d93d73", "61410b3e4c759fc2b8d138d2"]}