{"_id": "61410e81ee638803ccdc989d", "molecule": {"@module": "pymatgen.core.structure", "@class": "Molecule", "charge": 0, "spin_multiplicity": 1, "sites": [{"name": "F", "species": [{"element": "F", "occu": 1}], "xyz": [0.995463, -3.202415, 3.444033], "properties": {}}, {"name": "F", "species": [{"element": "F", "occu": 1}], "xyz": [-0.884176, -2.090509, 3.378981], "properties": {}}, {"name": "F", "species": [{"element": "F", "occu": 1}], "xyz": [0.81411, -1.307295, 4.509748], "properties": {}}, {"name": "F", "species": [{"element": "F", "occu": 1}], "xyz": [0.738598, -1.131444, -0.235245], "properties": {}}, {"name": "O", "species": [{"element": "O", "occu": 1}], "xyz": [2.320608, -0.96981, 2.203381], "properties": {}}, {"name": "C", "species": [{"element": "C", "occu": 1}], "xyz": [2.743036, 0.347913, 2.638604], "properties": {}}, {"name": "C", "species": [{"element": "C", "occu": 1}], "xyz": [0.938649, -1.196796, 2.126765], "properties": {}}, {"name": "C", "species": [{"element": "C", "occu": 1}], "xyz": [4.137101, 0.155265, 3.234897], "properties": {}}, {"name": "C", "species": [{"element": "C", "occu": 1}], "xyz": [2.696042, 1.315352, 1.457867], "properties": {}}, {"name": "C", "species": [{"element": "C", "occu": 1}], "xyz": [0.469499, -1.958574, 3.375758], "properties": {}}, {"name": "C", "species": [{"element": "C", "occu": 1}], "xyz": [0.626268, -1.991927, 0.863419], "properties": {}}, {"name": "C", "species": [{"element": "C", "occu": 1}], "xyz": [4.731871, 1.433741, 3.837632], "properties": {}}, {"name": "H", "species": [{"element": "H", "occu": 1}], "xyz": [2.062868, 0.687975, 3.433592], "properties": {}}, {"name": "H", "species": [{"element": "H", "occu": 1}], "xyz": [0.361565, -0.262313, 2.100504], "properties": {}}, {"name": "H", "species": [{"element": "H", "occu": 1}], "xyz": [4.062381, -0.621658, 4.005521], "properties": {}}, {"name": "H", "species": [{"element": "H", "occu": 1}], "xyz": [4.796592, -0.239301, 2.450387], "properties": {}}, {"name": "H", "species": [{"element": "H", "occu": 1}], "xyz": [1.699739, 1.338826, 1.00334], "properties": {}}, {"name": "H", "species": [{"element": "H", "occu": 1}], "xyz": [2.944279, 2.333423, 1.777298], "properties": {}}, {"name": "H", "species": [{"element": "H", "occu": 1}], "xyz": [3.408516, 1.00167, 0.686592], "properties": {}}, {"name": "H", "species": [{"element": "H", "occu": 1}], "xyz": [1.351334, -2.800189, 0.736611], "properties": {}}, {"name": "H", "species": [{"element": "H", "occu": 1}], "xyz": [-0.394117, -2.386888, 0.875086], "properties": {}}, {"name": "H", "species": [{"element": "H", "occu": 1}], "xyz": [4.061723, 1.867859, 4.591137], "properties": {}}, {"name": "H", "species": [{"element": "H", "occu": 1}], "xyz": [5.686873, 1.217446, 4.329294], "properties": {}}, {"name": "H", "species": [{"element": "H", "occu": 1}], "xyz": [4.919799, 2.197966, 3.075], "properties": {}}]}, "smiles": "FC(F)(F)[C@@H](O[C@@H](CC)C)CF", "inchi": "InChI=1S/C7H12F4O/c1-3-5(2)12-6(4-8)7(9,10)11/h5-6H,3-4H2,1-2H3/t5-,6+/m1/s1", "formula_alphabetical": "C7 F4 H12 O1", "chemsys": "C-F-H-O", "energy": -748.598869662, "esp": {"1": ["F", -0.192735], "2": ["F", -0.217803], "3": ["F", -0.180837], "4": ["F", -0.260849], "5": ["O", -0.527858], "6": ["C", 0.582322], "7": ["C", 0.0502], "8": ["C", 0.040349], "9": ["C", -0.422814], "10": ["C", 0.53226], "11": ["C", 0.1674], "12": ["C", -0.273508], "13": ["H", -0.066244], "14": ["H", 0.099689], "15": ["H", 0.009171], "16": ["H", 0.0087], "17": ["H", 0.109055], "18": ["H", 0.081176], "19": ["H", 0.12083], "20": ["H", 0.089313], "21": ["H", 0.051521], "22": ["H", 0.057112], "23": ["H", 0.080324], "24": ["H", 0.063226]}, "dipole_moment": {"X": 0.3919, "Y": 1.3313, "Z": 0.1528, "Tot": 1.3962}, "functional": "B3LYP", "basis": "6-31+G*", "phase": "gas", "tag": "lis", "state": "successful", "wall_time (s)": 14.424833387020044, "version": "0.0.1", "gauss_version": "ES64L-G16RevC.01", "last_updated": "2021-09-14 21:05:05.418000", "polarizability": 90.31, "fluorinated-solvent": "59423000", "run_ids": ["61410e13475633106e520392", "61410e4f480f40d332648790"]}