{"_id": "613a57ecc0c8f1338c7c2bbf", "molecule": {"@module": "pymatgen.core.structure", "@class": "Molecule", "charge": 0, "spin_multiplicity": 1, "sites": [{"name": "F", "species": [{"element": "F", "occu": 1}], "xyz": [0.705949, 0.259607, 0.518507], "properties": {}}, {"name": "F", "species": [{"element": "F", "occu": 1}], "xyz": [0.298293, 0.442313, -1.615087], "properties": {}}, {"name": "F", "species": [{"element": "F", "occu": 1}], "xyz": [-1.047146, 1.37414, -0.164625], "properties": {}}, {"name": "O", "species": [{"element": "O", "occu": 1}], "xyz": [2.430402, 2.219481, -0.627211], "properties": {}}, {"name": "C", "species": [{"element": "C", "occu": 1}], "xyz": [4.421728, 2.051884, -1.973737], "properties": {}}, {"name": "C", "species": [{"element": "C", "occu": 1}], "xyz": [2.892707, 2.064598, -1.978732], "properties": {}}, {"name": "C", "species": [{"element": "C", "occu": 1}], "xyz": [4.996626, 3.378062, -1.45433], "properties": {}}, {"name": "C", "species": [{"element": "C", "occu": 1}], "xyz": [4.967066, 0.85189, -1.184116], "properties": {}}, {"name": "C", "species": [{"element": "C", "occu": 1}], "xyz": [1.054027, 2.412423, -0.464251], "properties": {}}, {"name": "C", "species": [{"element": "C", "occu": 1}], "xyz": [0.258603, 1.107409, -0.431196], "properties": {}}, {"name": "H", "species": [{"element": "H", "occu": 1}], "xyz": [4.715643, 1.935032, -3.028434], "properties": {}}, {"name": "H", "species": [{"element": "H", "occu": 1}], "xyz": [2.503925, 1.13066, -2.404845], "properties": {}}, {"name": "H", "species": [{"element": "H", "occu": 1}], "xyz": [2.515705, 2.905016, -2.584684], "properties": {}}, {"name": "H", "species": [{"element": "H", "occu": 1}], "xyz": [4.714631, 3.536581, -0.407724], "properties": {}}, {"name": "H", "species": [{"element": "H", "occu": 1}], "xyz": [6.09134, 3.377255, -1.516214], "properties": {}}, {"name": "H", "species": [{"element": "H", "occu": 1}], "xyz": [4.626176, 4.230569, -2.038168], "properties": {}}, {"name": "H", "species": [{"element": "H", "occu": 1}], "xyz": [4.574268, -0.095038, -1.575171], "properties": {}}, {"name": "H", "species": [{"element": "H", "occu": 1}], "xyz": [6.061384, 0.814424, -1.24231], "properties": {}}, {"name": "H", "species": [{"element": "H", "occu": 1}], "xyz": [4.682705, 0.923803, -0.128733], "properties": {}}, {"name": "H", "species": [{"element": "H", "occu": 1}], "xyz": [0.617249, 3.04323, -1.253049], "properties": {}}, {"name": "H", "species": [{"element": "H", "occu": 1}], "xyz": [0.899448, 2.89826, 0.504061], "properties": {}}]}, "smiles": "FC(F)(F)COCC(C)C", "inchi": "InChI=1S/C6H11F3O/c1-5(2)3-10-4-6(7,8)9/h5H,3-4H2,1-2H3", "formula_alphabetical": "C6 F3 H11 O1", "chemsys": "C-F-H-O", "energy": -610.043313658, "esp": {"1": ["F", -0.196489], "2": ["F", -0.203687], "3": ["F", -0.235716], "4": ["O", -0.257721], "5": ["C", 0.37654], "6": ["C", -0.00752], "7": ["C", -0.299541], "8": ["C", -0.293993], "9": ["C", -0.213381], "10": ["C", 0.622412], "11": ["H", -0.064435], "12": ["H", 0.047267], "13": ["H", 0.04558], "14": ["H", 0.066763], "15": ["H", 0.068655], "16": ["H", 0.059033], "17": ["H", 0.067049], "18": ["H", 0.066729], "19": ["H", 0.061385], "20": ["H", 0.136814], "21": ["H", 0.154257]}, "dipole_moment": {"X": 0.9312, "Y": 1.7999, "Z": -1.2274, "Tot": 2.3693}, "functional": "B3LYP", "basis": "6-31+G*", "phase": "gas", "tag": "lis", "state": "successful", "wall_time (s)": 9.580998962046579, "version": "0.0.1", "gauss_version": "ES64L-G16RevC.01", "last_updated": "2021-09-09 18:52:28.099000", "polarizability": 78.6, "fluorinated-solvent": "12095509", "run_ids": ["613a4b08253e11a83e24dd95", "613a57e3206bb359523c0034"]}