{"_id": "613a4b8fc7367bf110e2b6a6", "molecule": {"@module": "pymatgen.core.structure", "@class": "Molecule", "charge": 0, "spin_multiplicity": 1, "sites": [{"name": "F", "species": [{"element": "F", "occu": 1}], "xyz": [2.651354, 2.944184, 1.737436], "properties": {}}, {"name": "F", "species": [{"element": "F", "occu": 1}], "xyz": [1.031229, 1.473739, 1.648473], "properties": {}}, {"name": "F", "species": [{"element": "F", "occu": 1}], "xyz": [4.467082, 0.895004, 2.31848], "properties": {}}, {"name": "F", "species": [{"element": "F", "occu": 1}], "xyz": [2.753267, 1.02698, 3.707381], "properties": {}}, {"name": "O", "species": [{"element": "O", "occu": 1}], "xyz": [2.749006, 1.298546, 0.193967], "properties": {}}, {"name": "C", "species": [{"element": "C", "occu": 1}], "xyz": [2.755395, 1.562793, -2.205508], "properties": {}}, {"name": "C", "species": [{"element": "C", "occu": 1}], "xyz": [2.157393, 2.067256, -0.894881], "properties": {}}, {"name": "C", "species": [{"element": "C", "occu": 1}], "xyz": [4.271019, 1.806041, -2.264312], "properties": {}}, {"name": "C", "species": [{"element": "C", "occu": 1}], "xyz": [2.406341, 0.088102, -2.456865], "properties": {}}, {"name": "C", "species": [{"element": "C", "occu": 1}], "xyz": [2.388402, 1.630994, 1.443558], "properties": {}}, {"name": "C", "species": [{"element": "C", "occu": 1}], "xyz": [3.12202, 0.707723, 2.436147], "properties": {}}, {"name": "H", "species": [{"element": "H", "occu": 1}], "xyz": [2.274834, 2.170581, -2.987599], "properties": {}}, {"name": "H", "species": [{"element": "H", "occu": 1}], "xyz": [1.072044, 1.92183, -0.86703], "properties": {}}, {"name": "H", "species": [{"element": "H", "occu": 1}], "xyz": [2.387189, 3.125522, -0.733844], "properties": {}}, {"name": "H", "species": [{"element": "H", "occu": 1}], "xyz": [4.78653, 1.229641, -1.488294], "properties": {}}, {"name": "H", "species": [{"element": "H", "occu": 1}], "xyz": [4.672811, 1.502042, -3.237757], "properties": {}}, {"name": "H", "species": [{"element": "H", "occu": 1}], "xyz": [4.512542, 2.865524, -2.113946], "properties": {}}, {"name": "H", "species": [{"element": "H", "occu": 1}], "xyz": [1.32198, -0.077497, -2.432077], "properties": {}}, {"name": "H", "species": [{"element": "H", "occu": 1}], "xyz": [2.775373, -0.233771, -3.437451], "properties": {}}, {"name": "H", "species": [{"element": "H", "occu": 1}], "xyz": [2.864656, -0.553688, -1.696168], "properties": {}}, {"name": "H", "species": [{"element": "H", "occu": 1}], "xyz": [2.885533, -0.342235, 2.243292], "properties": {}}]}, "smiles": "FC(F)(OCC(C)C)C(F)F", "inchi": "InChI=1S/C6H10F4O/c1-4(2)3-11-6(9,10)5(7)8/h4-5H,3H2,1-2H3", "formula_alphabetical": "C6 F4 H10 O1", "chemsys": "C-F-H-O", "energy": -709.290053731, "esp": {"1": ["F", -0.153066], "2": ["F", -0.201451], "3": ["F", -0.195798], "4": ["F", -0.194588], "5": ["O", -0.28865], "6": ["C", 0.371199], "7": ["C", -0.067027], "8": ["C", -0.283354], "9": ["C", -0.289645], "10": ["C", 0.350486], "11": ["C", 0.303599], "12": ["H", -0.054038], "13": ["H", 0.096371], "14": ["H", 0.089556], "15": ["H", 0.071472], "16": ["H", 0.064705], "17": ["H", 0.06574], "18": ["H", 0.061817], "19": ["H", 0.071849], "20": ["H", 0.064629], "21": ["H", 0.116193]}, "dipole_moment": {"X": -0.5957, "Y": -0.8863, "Z": -3.2306, "Tot": 3.4025}, "functional": "B3LYP", "basis": "6-31+G*", "phase": "gas", "tag": "lis", "state": "successful", "wall_time (s)": 16.899797932012007, "version": "0.0.1", "gauss_version": "ES64L-G16RevC.01", "last_updated": "2021-09-09 17:59:43.185000", "polarizability": 78.93, "fluorinated-solvent": "53401061", "run_ids": ["613a4908e42ee9513684b821", "613a4b2929452d52dee32278"]}