{"_id": "61411c5d66684218bbb8b154", "molecule": {"@module": "pymatgen.core.structure", "@class": "Molecule", "charge": 0, "spin_multiplicity": 1, "sites": [{"name": "F", "species": [{"element": "F", "occu": 1}], "xyz": [1.107503, -0.289019, 0.09927], "properties": {}}, {"name": "F", "species": [{"element": "F", "occu": 1}], "xyz": [2.600723, -0.151185, -1.489426], "properties": {}}, {"name": "F", "species": [{"element": "F", "occu": 1}], "xyz": [2.774689, -2.507219, -0.038842], "properties": {}}, {"name": "F", "species": [{"element": "F", "occu": 1}], "xyz": [2.596207, 3.357883, 2.063804], "properties": {}}, {"name": "O", "species": [{"element": "O", "occu": 1}], "xyz": [2.931864, 1.003584, 0.421544], "properties": {}}, {"name": "C", "species": [{"element": "C", "occu": 1}], "xyz": [2.459456, -0.148006, -0.117055], "properties": {}}, {"name": "C", "species": [{"element": "C", "occu": 1}], "xyz": [2.310339, 2.229107, -0.022451], "properties": {}}, {"name": "C", "species": [{"element": "C", "occu": 1}], "xyz": [3.223529, -1.311999, 0.501755], "properties": {}}, {"name": "C", "species": [{"element": "C", "occu": 1}], "xyz": [2.967945, 3.370134, 0.713774], "properties": {}}, {"name": "H", "species": [{"element": "H", "occu": 1}], "xyz": [2.46399, 2.346889, -1.101807], "properties": {}}, {"name": "H", "species": [{"element": "H", "occu": 1}], "xyz": [1.238358, 2.198367, 0.195454], "properties": {}}, {"name": "H", "species": [{"element": "H", "occu": 1}], "xyz": [4.288309, -1.198476, 0.28123], "properties": {}}, {"name": "H", "species": [{"element": "H", "occu": 1}], "xyz": [3.04782, -1.318972, 1.580741], "properties": {}}, {"name": "H", "species": [{"element": "H", "occu": 1}], "xyz": [4.059351, 3.293606, 0.668618], "properties": {}}, {"name": "H", "species": [{"element": "H", "occu": 1}], "xyz": [2.640908, 4.325027, 0.286391], "properties": {}}]}, "smiles": "FC(F)(OCCF)CF", "inchi": "InChI=1S/C4H6F4O/c5-1-2-9-4(7,8)3-6/h1-3H2", "formula_alphabetical": "C4 F4 H6 O1", "chemsys": "C-F-H-O", "energy": -630.651524361, "esp": {"1": ["F", -0.222159], "2": ["F", -0.225151], "3": ["F", -0.232381], "4": ["F", -0.265872], "5": ["O", -0.420291], "6": ["C", 0.568643], "7": ["C", 0.067758], "8": ["C", 0.042749], "9": ["C", 0.170931], "10": ["H", 0.066907], "11": ["H", 0.107537], "12": ["H", 0.105867], "13": ["H", 0.113567], "14": ["H", 0.074632], "15": ["H", 0.047264]}, "dipole_moment": {"X": 1.5812, "Y": 2.4908, "Z": -0.5372, "Tot": 2.9988}, "functional": "B3LYP", "basis": "6-31+G*", "phase": "gas", "tag": "lis", "state": "successful", "wall_time (s)": 6.609046470024623, "version": "0.0.1", "gauss_version": "ES64L-G16RevC.01", "last_updated": "2021-09-14 22:04:12.996000", "polarizability": 55.49, "fluorinated-solvent": "59289804", "run_ids": ["61411c40715103c121c55a34", "61411c4e26c05c2246b62736"]}