{"_id": "61411c83dd32ba48abc83ff5", "molecule": {"@module": "pymatgen.core.structure", "@class": "Molecule", "charge": 0, "spin_multiplicity": 1, "sites": [{"name": "F", "species": [{"element": "F", "occu": 1}], "xyz": [0.963289, -4.434411, -1.495285], "properties": {}}, {"name": "F", "species": [{"element": "F", "occu": 1}], "xyz": [-0.833086, -4.007803, -0.326456], "properties": {}}, {"name": "F", "species": [{"element": "F", "occu": 1}], "xyz": [0.987523, -4.662514, 0.676001], "properties": {}}, {"name": "F", "species": [{"element": "F", "occu": 1}], "xyz": [-0.634076, -1.666557, -1.753477], "properties": {}}, {"name": "F", "species": [{"element": "F", "occu": 1}], "xyz": [0.950354, -0.277028, -1.089021], "properties": {}}, {"name": "O", "species": [{"element": "O", "occu": 1}], "xyz": [2.359393, -2.410233, 0.034137], "properties": {}}, {"name": "C", "species": [{"element": "C", "occu": 1}], "xyz": [2.823408, -2.245571, 1.402216], "properties": {}}, {"name": "C", "species": [{"element": "C", "occu": 1}], "xyz": [0.974447, -2.439546, -0.163166], "properties": {}}, {"name": "C", "species": [{"element": "C", "occu": 1}], "xyz": [4.22642, -2.850098, 1.428687], "properties": {}}, {"name": "C", "species": [{"element": "C", "occu": 1}], "xyz": [2.768727, -0.77024, 1.789898], "properties": {}}, {"name": "C", "species": [{"element": "C", "occu": 1}], "xyz": [0.512516, -3.899558, -0.337361], "properties": {}}, {"name": "C", "species": [{"element": "C", "occu": 1}], "xyz": [0.688267, -1.585719, -1.403571], "properties": {}}, {"name": "C", "species": [{"element": "C", "occu": 1}], "xyz": [4.864112, -2.862996, 2.823309], "properties": {}}, {"name": "H", "species": [{"element": "H", "occu": 1}], "xyz": [2.169697, -2.836041, 2.060362], "properties": {}}, {"name": "H", "species": [{"element": "H", "occu": 1}], "xyz": [0.405165, -2.01906, 0.676096], "properties": {}}, {"name": "H", "species": [{"element": "H", "occu": 1}], "xyz": [4.151998, -3.873749, 1.042338], "properties": {}}, {"name": "H", "species": [{"element": "H", "occu": 1}], "xyz": [4.857603, -2.290427, 0.725565], "properties": {}}, {"name": "H", "species": [{"element": "H", "occu": 1}], "xyz": [1.759722, -0.361853, 1.668278], "properties": {}}, {"name": "H", "species": [{"element": "H", "occu": 1}], "xyz": [3.059787, -0.634298, 2.837059], "properties": {}}, {"name": "H", "species": [{"element": "H", "occu": 1}], "xyz": [3.446097, -0.188302, 1.155008], "properties": {}}, {"name": "H", "species": [{"element": "H", "occu": 1}], "xyz": [1.301917, -1.866198, -2.262883], "properties": {}}, {"name": "H", "species": [{"element": "H", "occu": 1}], "xyz": [4.222179, -3.377739, 3.549993], "properties": {}}, {"name": "H", "species": [{"element": "H", "occu": 1}], "xyz": [5.824837, -3.38899, 2.799441], "properties": {}}, {"name": "H", "species": [{"element": "H", "occu": 1}], "xyz": [5.052326, -1.850706, 3.19835], "properties": {}}]}, "smiles": "FC(F)(F)[C@@H](O[C@@H](CC)C)C(F)F", "inchi": "InChI=1S/C7H11F5O/c1-3-4(2)13-5(6(8)9)7(10,11)12/h4-6H,3H2,1-2H3/t4-,5+/m1/s1", "formula_alphabetical": "C7 F5 H11 O1", "chemsys": "C-F-H-O", "energy": -847.845032247, "esp": {"1": ["F", -0.183269], "2": ["F", -0.199641], "3": ["F", -0.182112], "4": ["F", -0.247223], "5": ["F", -0.230132], "6": ["O", -0.535749], "7": ["C", 0.531371], "8": ["C", -0.003446], "9": ["C", 0.028399], "10": ["C", -0.49166], "11": ["C", 0.534859], "12": ["C", 0.418091], "13": ["C", -0.270388], "14": ["H", -0.030816], "15": ["H", 0.128478], "16": ["H", 0.021921], "17": ["H", 0.021178], "18": ["H", 0.130948], "19": ["H", 0.107752], "20": ["H", 0.143694], "21": ["H", 0.101959], "22": ["H", 0.058246], "23": ["H", 0.081209], "24": ["H", 0.066332]}, "dipole_moment": {"X": 1.9203, "Y": 0.6106, "Z": 2.0048, "Tot": 2.8425}, "functional": "B3LYP", "basis": "6-31+G*", "phase": "gas", "tag": "lis", "state": "successful", "wall_time (s)": 13.028739283094183, "version": "0.0.1", "gauss_version": "ES64L-G16RevC.01", "last_updated": "2021-09-14 22:04:50.782000", "polarizability": 91.14, "fluorinated-solvent": "57568900", "run_ids": ["61411c67ff0d7a20ad0ac1a9", "61411c7ba5895e2f7dd31c70"]}