{"_id": "613a51e4b59b668f25b1cd1d", "molecule": {"@module": "pymatgen.core.structure", "@class": "Molecule", "charge": 0, "spin_multiplicity": 1, "sites": [{"name": "F", "species": [{"element": "F", "occu": 1}], "xyz": [0.882934, -0.733411, -1.133164], "properties": {}}, {"name": "F", "species": [{"element": "F", "occu": 1}], "xyz": [1.768465, -2.608864, -1.811239], "properties": {}}, {"name": "F", "species": [{"element": "F", "occu": 1}], "xyz": [2.516711, -0.705637, -2.580593], "properties": {}}, {"name": "F", "species": [{"element": "F", "occu": 1}], "xyz": [2.068993, 0.759376, 1.751022], "properties": {}}, {"name": "F", "species": [{"element": "F", "occu": 1}], "xyz": [0.790913, -0.665288, 2.798645], "properties": {}}, {"name": "F", "species": [{"element": "F", "occu": 1}], "xyz": [2.558006, 0.148695, 3.792443], "properties": {}}, {"name": "F", "species": [{"element": "F", "occu": 1}], "xyz": [5.372242, -1.545096, 0.164553], "properties": {}}, {"name": "F", "species": [{"element": "F", "occu": 1}], "xyz": [3.860853, -3.553219, 2.603117], "properties": {}}, {"name": "O", "species": [{"element": "O", "occu": 1}], "xyz": [2.470982, -1.838014, 0.790604], "properties": {}}, {"name": "C", "species": [{"element": "C", "occu": 1}], "xyz": [3.074693, -1.241702, -0.346583], "properties": {}}, {"name": "C", "species": [{"element": "C", "occu": 1}], "xyz": [2.939345, -1.438917, 2.067385], "properties": {}}, {"name": "C", "species": [{"element": "C", "occu": 1}], "xyz": [2.038945, -1.328569, -1.471936], "properties": {}}, {"name": "C", "species": [{"element": "C", "occu": 1}], "xyz": [2.072699, -0.29148, 2.604664], "properties": {}}, {"name": "C", "species": [{"element": "C", "occu": 1}], "xyz": [4.372353, -1.94562, -0.737093], "properties": {}}, {"name": "C", "species": [{"element": "C", "occu": 1}], "xyz": [2.865153, -2.652406, 2.98558], "properties": {}}, {"name": "H", "species": [{"element": "H", "occu": 1}], "xyz": [3.270399, -0.174752, -0.187729], "properties": {}}, {"name": "H", "species": [{"element": "H", "occu": 1}], "xyz": [3.973006, -1.079909, 2.028301], "properties": {}}, {"name": "H", "species": [{"element": "H", "occu": 1}], "xyz": [4.260674, -3.029524, -0.654187], "properties": {}}, {"name": "H", "species": [{"element": "H", "occu": 1}], "xyz": [4.698194, -1.660919, -1.741558], "properties": {}}, {"name": "H", "species": [{"element": "H", "occu": 1}], "xyz": [3.042778, -2.370474, 4.027598], "properties": {}}, {"name": "H", "species": [{"element": "H", "occu": 1}], "xyz": [1.89688, -3.14982, 2.881392], "properties": {}}]}, "smiles": "FC(F)(F)[C@@H](O[C@@H](C(F)(F)F)CF)CF", "inchi": "InChI=1S/C6H6F8O/c7-1-3(5(9,10)11)15-4(2-8)6(12,13)14/h3-4H,1-2H2/t3-,4+", "formula_alphabetical": "C6 F8 H6 O1", "chemsys": "C-F-H-O", "energy": -1106.25631055, "esp": {"1": ["F", -0.162205], "2": ["F", -0.17973], "3": ["F", -0.195529], "4": ["F", -0.186726], "5": ["F", -0.184685], "6": ["F", -0.205817], "7": ["F", -0.243894], "8": ["F", -0.223001], "9": ["O", -0.248122], "10": ["C", -0.069032], "11": ["C", -0.126709], "12": ["C", 0.518139], "13": ["C", 0.571167], "14": ["C", 0.066456], "15": ["C", 0.092243], "16": ["H", 0.157962], "17": ["H", 0.188912], "18": ["H", 0.127706], "19": ["H", 0.102076], "20": ["H", 0.091792], "21": ["H", 0.108997]}, "dipole_moment": {"X": 0.8655, "Y": -0.0101, "Z": 0.2733, "Tot": 0.9077}, "functional": "B3LYP", "basis": "6-31+G*", "phase": "gas", "tag": "lis", "state": "successful", "wall_time (s)": 24.095564831979573, "version": "0.0.1", "gauss_version": "ES64L-G16RevC.01", "last_updated": "2021-09-09 18:26:44.626000", "polarizability": 80.46, "fluorinated-solvent": "54429622", "run_ids": ["613a4aa813abba66a96315dc", "613a51dcdb9a821221ab872d"]}