{"_id": "61410c454e559eaf22491f5a", "molecule": {"@module": "pymatgen.core.structure", "@class": "Molecule", "charge": 0, "spin_multiplicity": 1, "sites": [{"name": "F", "species": [{"element": "F", "occu": 1}], "xyz": [4.83984, 0.586818, 0.579103], "properties": {}}, {"name": "F", "species": [{"element": "F", "occu": 1}], "xyz": [4.472517, -1.560899, 0.428432], "properties": {}}, {"name": "F", "species": [{"element": "F", "occu": 1}], "xyz": [4.956381, -0.667654, 2.36167], "properties": {}}, {"name": "F", "species": [{"element": "F", "occu": 1}], "xyz": [1.880541, 1.999289, 5.152034], "properties": {}}, {"name": "F", "species": [{"element": "F", "occu": 1}], "xyz": [-0.047426, 3.095308, 5.216949], "properties": {}}, {"name": "O", "species": [{"element": "O", "occu": 1}], "xyz": [1.102475, 1.05669, 2.468513], "properties": {}}, {"name": "C", "species": [{"element": "C", "occu": 1}], "xyz": [2.790959, -0.248901, 1.46082], "properties": {}}, {"name": "C", "species": [{"element": "C", "occu": 1}], "xyz": [2.523082, 0.974087, 2.333211], "properties": {}}, {"name": "C", "species": [{"element": "C", "occu": 1}], "xyz": [0.618698, 2.204385, 3.137818], "properties": {}}, {"name": "C", "species": [{"element": "C", "occu": 1}], "xyz": [4.263899, -0.472067, 1.208924], "properties": {}}, {"name": "C", "species": [{"element": "C", "occu": 1}], "xyz": [0.596672, 2.020322, 4.648263], "properties": {}}, {"name": "H", "species": [{"element": "H", "occu": 1}], "xyz": [2.298195, -0.135992, 0.49051], "properties": {}}, {"name": "H", "species": [{"element": "H", "occu": 1}], "xyz": [2.394766, -1.148329, 1.941787], "properties": {}}, {"name": "H", "species": [{"element": "H", "occu": 1}], "xyz": [3.006602, 0.869943, 3.311002], "properties": {}}, {"name": "H", "species": [{"element": "H", "occu": 1}], "xyz": [2.90671, 1.885384, 1.851933], "properties": {}}, {"name": "H", "species": [{"element": "H", "occu": 1}], "xyz": [1.206623, 3.10337, 2.900542], "properties": {}}, {"name": "H", "species": [{"element": "H", "occu": 1}], "xyz": [-0.411867, 2.35795, 2.802718], "properties": {}}, {"name": "H", "species": [{"element": "H", "occu": 1}], "xyz": [0.098773, 1.102057, 4.973449], "properties": {}}]}, "smiles": "FC(F)(F)CCOCC(F)F", "inchi": "InChI=1S/C5H7F5O/c6-4(7)3-11-2-1-5(8,9)10/h4H,1-3H2", "formula_alphabetical": "C5 F5 H7 O1", "chemsys": "C-F-H-O", "energy": -769.220632649, "esp": {"1": ["F", -0.232353], "2": ["F", -0.223203], "3": ["F", -0.221237], "4": ["F", -0.243309], "5": ["F", -0.273048], "6": ["O", -0.435929], "7": ["C", -0.342288], "8": ["C", 0.349008], "9": ["C", -0.058168], "10": ["C", 0.644822], "11": ["C", 0.44384], "12": ["H", 0.137309], "13": ["H", 0.133328], "14": ["H", 0.000988], "15": ["H", 0.01558], "16": ["H", 0.107229], "17": ["H", 0.119082], "18": ["H", 0.07835]}, "dipole_moment": {"X": -2.2161, "Y": 0.0735, "Z": -0.6842, "Tot": 2.3204}, "functional": "B3LYP", "basis": "6-31+G*", "phase": "gas", "tag": "lis", "state": "successful", "wall_time (s)": 8.382697931025177, "version": "0.0.1", "gauss_version": "ES64L-G16RevC.01", "last_updated": "2021-09-14 20:55:32.975000", "polarizability": 67.94, "fluorinated-solvent": "126707171", "run_ids": ["61410bb5744db87e51df2917", "61410c2358a82a5517ac42c2"]}