{"_id": "6141154612fdf24ee466a570", "molecule": {"@module": "pymatgen.core.structure", "@class": "Molecule", "charge": 0, "spin_multiplicity": 1, "sites": [{"name": "F", "species": [{"element": "F", "occu": 1}], "xyz": [3.009384, -2.224326, 1.199972], "properties": {}}, {"name": "F", "species": [{"element": "F", "occu": 1}], "xyz": [2.283596, -2.982299, -0.706853], "properties": {}}, {"name": "F", "species": [{"element": "F", "occu": 1}], "xyz": [1.007121, -1.686265, 0.508287], "properties": {}}, {"name": "F", "species": [{"element": "F", "occu": 1}], "xyz": [6.984207, -1.044539, 1.656085], "properties": {}}, {"name": "F", "species": [{"element": "F", "occu": 1}], "xyz": [8.634807, 0.168508, 0.893841], "properties": {}}, {"name": "F", "species": [{"element": "F", "occu": 1}], "xyz": [7.486813, 0.834386, 2.632918], "properties": {}}, {"name": "O", "species": [{"element": "O", "occu": 1}], "xyz": [2.714164, -0.782924, -0.500015], "properties": {}}, {"name": "O", "species": [{"element": "O", "occu": 1}], "xyz": [6.603349, 0.883123, 0.563476], "properties": {}}, {"name": "C", "species": [{"element": "C", "occu": 1}], "xyz": [4.474878, 0.575787, -1.402729], "properties": {}}, {"name": "C", "species": [{"element": "C", "occu": 1}], "xyz": [4.434259, 1.553171, -0.215761], "properties": {}}, {"name": "C", "species": [{"element": "C", "occu": 1}], "xyz": [4.058339, -0.84622, -1.063452], "properties": {}}, {"name": "C", "species": [{"element": "C", "occu": 1}], "xyz": [5.228615, 1.102719, 0.999519], "properties": {}}, {"name": "C", "species": [{"element": "C", "occu": 1}], "xyz": [2.26831, -1.891041, 0.104539], "properties": {}}, {"name": "C", "species": [{"element": "C", "occu": 1}], "xyz": [7.402743, 0.231357, 1.416912], "properties": {}}, {"name": "H", "species": [{"element": "H", "occu": 1}], "xyz": [5.492169, 0.525435, -1.808432], "properties": {}}, {"name": "H", "species": [{"element": "H", "occu": 1}], "xyz": [3.826779, 0.95889, -2.199898], "properties": {}}, {"name": "H", "species": [{"element": "H", "occu": 1}], "xyz": [4.808219, 2.529183, -0.547172], "properties": {}}, {"name": "H", "species": [{"element": "H", "occu": 1}], "xyz": [3.398039, 1.697562, 0.111974], "properties": {}}, {"name": "H", "species": [{"element": "H", "occu": 1}], "xyz": [4.728541, -1.304192, -0.329211], "properties": {}}, {"name": "H", "species": [{"element": "H", "occu": 1}], "xyz": [4.027693, -1.477295, -1.95686], "properties": {}}, {"name": "H", "species": [{"element": "H", "occu": 1}], "xyz": [5.233445, 1.869467, 1.780191], "properties": {}}, {"name": "H", "species": [{"element": "H", "occu": 1}], "xyz": [4.837883, 0.171083, 1.420678], "properties": {}}]}, "smiles": "FC(F)(F)OCCCCOC(F)(F)F", "inchi": "InChI=1S/C6H8F6O2/c7-5(8,9)13-3-1-2-4-14-6(10,11)12/h1-4H2", "formula_alphabetical": "C6 F6 H8 O2", "chemsys": "C-F-H-O", "energy": -983.022623902, "esp": {"1": ["F", -0.195883], "2": ["F", -0.202763], "3": ["F", -0.181495], "4": ["F", -0.207325], "5": ["F", -0.189201], "6": ["F", -0.210002], "7": ["O", -0.321032], "8": ["O", -0.353266], "9": ["C", -0.061369], "10": ["C", -0.07675], "11": ["C", 0.056038], "12": ["C", 0.143357], "13": ["C", 0.636741], "14": ["C", 0.675338], "15": ["H", 0.047636], "16": ["H", 0.065156], "17": ["H", 0.063019], "18": ["H", 0.046582], "19": ["H", 0.075581], "20": ["H", 0.08287], "21": ["H", 0.05964], "22": ["H", 0.047129]}, "dipole_moment": {"X": -0.4103, "Y": 2.0498, "Z": -1.6954, "Tot": 2.6916}, "functional": "B3LYP", "basis": "6-31+G*", "phase": "gas", "tag": "lis", "state": "successful", "wall_time (s)": 13.199804947013035, "version": "0.0.1", "gauss_version": "ES64L-G16RevC.01", "last_updated": "2021-09-14 21:33:57.895000", "polarizability": 83.5, "fluorinated-solvent": "118542196", "run_ids": ["6141151234892f527d7d9fdc", "61411535a794bd7a4d6e44b1"]}