{"_id": "614114a4a36c427cd93d41f6", "molecule": {"@module": "pymatgen.core.structure", "@class": "Molecule", "charge": 0, "spin_multiplicity": 1, "sites": [{"name": "F", "species": [{"element": "F", "occu": 1}], "xyz": [0.787161, 0.151559, 0.207613], "properties": {}}, {"name": "F", "species": [{"element": "F", "occu": 1}], "xyz": [2.469933, 1.229364, 1.079244], "properties": {}}, {"name": "F", "species": [{"element": "F", "occu": 1}], "xyz": [1.305933, -1.012704, 2.632529], "properties": {}}, {"name": "F", "species": [{"element": "F", "occu": 1}], "xyz": [2.731768, -2.62144, 2.264045], "properties": {}}, {"name": "F", "species": [{"element": "F", "occu": 1}], "xyz": [3.437618, -0.651976, 2.856042], "properties": {}}, {"name": "F", "species": [{"element": "F", "occu": 1}], "xyz": [4.210369, 2.565129, -2.052064], "properties": {}}, {"name": "F", "species": [{"element": "F", "occu": 1}], "xyz": [2.278836, 3.59138, -2.322077], "properties": {}}, {"name": "O", "species": [{"element": "O", "occu": 1}], "xyz": [2.625933, -1.021702, 0.792004], "properties": {}}, {"name": "O", "species": [{"element": "O", "occu": 1}], "xyz": [2.249258, 1.478324, -1.783563], "properties": {}}, {"name": "C", "species": [{"element": "C", "occu": 1}], "xyz": [2.139983, 0.1762, 0.270008], "properties": {}}, {"name": "C", "species": [{"element": "C", "occu": 1}], "xyz": [2.761097, 0.335074, -1.117227], "properties": {}}, {"name": "C", "species": [{"element": "C", "occu": 1}], "xyz": [2.514871, -1.310037, 2.134424], "properties": {}}, {"name": "C", "species": [{"element": "C", "occu": 1}], "xyz": [2.919213, 2.662954, -1.582328], "properties": {}}, {"name": "H", "species": [{"element": "H", "occu": 1}], "xyz": [3.850086, 0.365348, -1.016104], "properties": {}}, {"name": "H", "species": [{"element": "H", "occu": 1}], "xyz": [2.478323, -0.531978, -1.716631], "properties": {}}, {"name": "H", "species": [{"element": "H", "occu": 1}], "xyz": [2.968468, 2.988504, -0.539736], "properties": {}}]}, "smiles": "FC(F)(OC(F)(F)F)COC(F)F", "inchi": "InChI=1S/C4H3F7O2/c5-2(6)12-1-3(7,8)13-4(9,10)11/h2H,1H2", "formula_alphabetical": "C4 F7 H3 O2", "chemsys": "C-F-H-O", "energy": -1003.62313153, "esp": {"1": ["F", -0.175467], "2": ["F", -0.182346], "3": ["F", -0.184454], "4": ["F", -0.185443], "5": ["F", -0.20387], "6": ["F", -0.236115], "7": ["F", -0.212757], "8": ["O", -0.411407], "9": ["O", -0.340885], "10": ["C", 0.502826], "11": ["C", -0.002678], "12": ["C", 0.770307], "13": ["C", 0.535399], "14": ["H", 0.107514], "15": ["H", 0.151547], "16": ["H", 0.067829]}, "dipole_moment": {"X": 0.9456, "Y": -1.1393, "Z": 0.3272, "Tot": 1.5163}, "functional": "B3LYP", "basis": "6-31+G*", "phase": "gas", "tag": "lis", "state": "successful", "wall_time (s)": 9.412098982022144, "version": "0.0.1", "gauss_version": "ES64L-G16RevC.01", "last_updated": "2021-09-14 21:31:16.108000", "polarizability": 62.69, "fluorinated-solvent": "153949925", "run_ids": ["6141145893ccfd4ceb764143", "61411493cdc610d78a66fa32"]}