{"_id": "6141285051e242daa0d33dc5", "molecule": {"@module": "pymatgen.core.structure", "@class": "Molecule", "charge": 0, "spin_multiplicity": 1, "sites": [{"name": "F", "species": [{"element": "F", "occu": 1}], "xyz": [5.35536, 3.995941, -0.33947], "properties": {}}, {"name": "F", "species": [{"element": "F", "occu": 1}], "xyz": [4.438795, 3.354404, 1.573617], "properties": {}}, {"name": "O", "species": [{"element": "O", "occu": 1}], "xyz": [2.300493, 2.213737, 0.030463], "properties": {}}, {"name": "C", "species": [{"element": "C", "occu": 1}], "xyz": [0.880953, 2.442996, 0.004283], "properties": {}}, {"name": "C", "species": [{"element": "C", "occu": 1}], "xyz": [0.361246, 2.548355, -1.43701], "properties": {}}, {"name": "C", "species": [{"element": "C", "occu": 1}], "xyz": [0.266811, 1.293513, 0.79383], "properties": {}}, {"name": "C", "species": [{"element": "C", "occu": 1}], "xyz": [-1.138967, 2.856784, -1.531403], "properties": {}}, {"name": "C", "species": [{"element": "C", "occu": 1}], "xyz": [3.108569, 3.288422, -0.394256], "properties": {}}, {"name": "C", "species": [{"element": "C", "occu": 1}], "xyz": [4.479042, 3.092649, 0.225697], "properties": {}}, {"name": "H", "species": [{"element": "H", "occu": 1}], "xyz": [0.678697, 3.394003, 0.528458], "properties": {}}, {"name": "H", "species": [{"element": "H", "occu": 1}], "xyz": [0.916429, 3.339847, -1.957521], "properties": {}}, {"name": "H", "species": [{"element": "H", "occu": 1}], "xyz": [0.592617, 1.607668, -1.955207], "properties": {}}, {"name": "H", "species": [{"element": "H", "occu": 1}], "xyz": [0.727218, 1.233834, 1.784951], "properties": {}}, {"name": "H", "species": [{"element": "H", "occu": 1}], "xyz": [-0.81127, 1.435047, 0.919793], "properties": {}}, {"name": "H", "species": [{"element": "H", "occu": 1}], "xyz": [0.437036, 0.342478, 0.275349], "properties": {}}, {"name": "H", "species": [{"element": "H", "occu": 1}], "xyz": [2.714961, 4.259917, -0.057708], "properties": {}}, {"name": "H", "species": [{"element": "H", "occu": 1}], "xyz": [3.225763, 3.315272, -1.487329], "properties": {}}, {"name": "H", "species": [{"element": "H", "occu": 1}], "xyz": [-1.393961, 3.76163, -0.964206], "properties": {}}, {"name": "H", "species": [{"element": "H", "occu": 1}], "xyz": [-1.435485, 3.024095, -2.573006], "properties": {}}, {"name": "H", "species": [{"element": "H", "occu": 1}], "xyz": [-1.749851, 2.034747, -1.142614], "properties": {}}, {"name": "H", "species": [{"element": "H", "occu": 1}], "xyz": [4.883285, 2.085439, 0.090807], "properties": {}}]}, "smiles": "FC(F)CO[C@@H](CC)C", "inchi": "InChI=1S/C6H12F2O/c1-3-5(2)9-4-6(7)8/h5-6H,3-4H2,1-2H3/t5-/m1/s1", "formula_alphabetical": "C6 F2 H12 O1", "chemsys": "C-F-H-O", "energy": -510.791385447, "esp": {"1": ["F", -0.302989], "2": ["F", -0.267993], "3": ["O", -0.540776], "4": ["C", 0.512797], "5": ["C", 0.015547], "6": ["C", -0.442004], "7": ["C", -0.320423], "8": ["C", 0.055144], "9": ["C", 0.539623], "10": ["H", -0.022365], "11": ["H", 0.017363], "12": ["H", 0.026104], "13": ["H", 0.122523], "14": ["H", 0.099154], "15": ["H", 0.117865], "16": ["H", 0.062306], "17": ["H", 0.038481], "18": ["H", 0.062703], "19": ["H", 0.093036], "20": ["H", 0.084508], "21": ["H", 0.049395]}, "dipole_moment": {"X": -2.4582, "Y": -0.4771, "Z": -1.5472, "Tot": 2.9435}, "functional": "B3LYP", "basis": "6-31+G*", "phase": "gas", "tag": "lis", "state": "successful", "wall_time (s)": 8.01797565293964, "version": "0.0.1", "gauss_version": "ES64L-G16RevC.01", "last_updated": "2021-09-14 22:55:11.956000", "polarizability": 78.05, "fluorinated-solvent": "90914152", "run_ids": ["614128349881cfd30d53e71e", "61412844c5a2d681e2ac9874"]}