{"_id": "61412a3b8a32700533e48fbf", "molecule": {"@module": "pymatgen.core.structure", "@class": "Molecule", "charge": 0, "spin_multiplicity": 1, "sites": [{"name": "F", "species": [{"element": "F", "occu": 1}], "xyz": [5.119275, 3.917344, -0.413922], "properties": {}}, {"name": "F", "species": [{"element": "F", "occu": 1}], "xyz": [4.992455, 2.134407, 0.892489], "properties": {}}, {"name": "O", "species": [{"element": "O", "occu": 1}], "xyz": [2.153472, 2.209109, 0.580475], "properties": {}}, {"name": "C", "species": [{"element": "C", "occu": 1}], "xyz": [0.744972, 2.424155, 0.370381], "properties": {}}, {"name": "C", "species": [{"element": "C", "occu": 1}], "xyz": [2.981525, 3.356283, 0.445902], "properties": {}}, {"name": "C", "species": [{"element": "C", "occu": 1}], "xyz": [0.417773, 2.322078, -1.126675], "properties": {}}, {"name": "C", "species": [{"element": "C", "occu": 1}], "xyz": [0.024397, 1.388746, 1.225832], "properties": {}}, {"name": "C", "species": [{"element": "C", "occu": 1}], "xyz": [4.320982, 2.842228, -0.073059], "properties": {}}, {"name": "C", "species": [{"element": "C", "occu": 1}], "xyz": [3.115596, 4.122301, 1.760816], "properties": {}}, {"name": "C", "species": [{"element": "C", "occu": 1}], "xyz": [-1.030004, 2.690827, -1.475255], "properties": {}}, {"name": "H", "species": [{"element": "H", "occu": 1}], "xyz": [0.480382, 3.433165, 0.727707], "properties": {}}, {"name": "H", "species": [{"element": "H", "occu": 1}], "xyz": [2.596653, 4.021674, -0.342519], "properties": {}}, {"name": "H", "species": [{"element": "H", "occu": 1}], "xyz": [1.098614, 2.985076, -1.677594], "properties": {}}, {"name": "H", "species": [{"element": "H", "occu": 1}], "xyz": [0.644179, 1.299304, -1.4565], "properties": {}}, {"name": "H", "species": [{"element": "H", "occu": 1}], "xyz": [0.314755, 1.499457, 2.27537], "properties": {}}, {"name": "H", "species": [{"element": "H", "occu": 1}], "xyz": [-1.062382, 1.500116, 1.150756], "properties": {}}, {"name": "H", "species": [{"element": "H", "occu": 1}], "xyz": [0.296209, 0.377965, 0.899688], "properties": {}}, {"name": "H", "species": [{"element": "H", "occu": 1}], "xyz": [4.217159, 2.198077, -0.95061], "properties": {}}, {"name": "H", "species": [{"element": "H", "occu": 1}], "xyz": [3.785306, 4.981042, 1.643711], "properties": {}}, {"name": "H", "species": [{"element": "H", "occu": 1}], "xyz": [2.134856, 4.489607, 2.080418], "properties": {}}, {"name": "H", "species": [{"element": "H", "occu": 1}], "xyz": [3.512341, 3.463026, 2.537668], "properties": {}}, {"name": "H", "species": [{"element": "H", "occu": 1}], "xyz": [-1.280073, 3.698103, -1.116774], "properties": {}}, {"name": "H", "species": [{"element": "H", "occu": 1}], "xyz": [-1.184372, 2.677194, -2.560154], "properties": {}}, {"name": "H", "species": [{"element": "H", "occu": 1}], "xyz": [-1.747232, 1.990994, -1.032], "properties": {}}]}, "smiles": "FC(F)[C@@H](O[C@@H](CC)C)C", "inchi": "InChI=1S/C7H14F2O/c1-4-5(2)10-6(3)7(8)9/h5-7H,4H2,1-3H3/t5-,6+/m1/s1", "formula_alphabetical": "C7 F2 H14 O1", "chemsys": "C-F-H-O", "energy": -550.108921555, "esp": {"1": ["F", -0.267506], "2": ["F", -0.228387], "3": ["O", -0.597572], "4": ["C", 0.575577], "5": ["C", 0.332575], "6": ["C", -0.074992], "7": ["C", -0.499909], "8": ["C", 0.380151], "9": ["C", -0.296275], "10": ["C", -0.185958], "11": ["H", -0.027823], "12": ["H", -0.013236], "13": ["H", 0.026266], "14": ["H", 0.027027], "15": ["H", 0.13277], "16": ["H", 0.103799], "17": ["H", 0.143271], "18": ["H", 0.056056], "19": ["H", 0.080115], "20": ["H", 0.076108], "21": ["H", 0.11087], "22": ["H", 0.027729], "23": ["H", 0.066925], "24": ["H", 0.052419]}, "dipole_moment": {"X": -3.0763, "Y": 0.741, "Z": -0.8546, "Tot": 3.2776}, "functional": "B3LYP", "basis": "6-31+G*", "phase": "gas", "tag": "lis", "state": "successful", "wall_time (s)": 12.16190645401366, "version": "0.0.1", "gauss_version": "ES64L-G16RevC.01", "last_updated": "2021-09-14 23:03:23.408000", "polarizability": 89.39, "fluorinated-solvent": "121277082", "run_ids": ["61412a1fe62452decf8794f6", "61412a33958a54440d387128"]}