{"_id": "613a576854fde24544141439", "molecule": {"@module": "pymatgen.core.structure", "@class": "Molecule", "charge": 0, "spin_multiplicity": 1, "sites": [{"name": "F", "species": [{"element": "F", "occu": 1}], "xyz": [1.211898, -0.295884, 0.789735], "properties": {}}, {"name": "F", "species": [{"element": "F", "occu": 1}], "xyz": [3.322604, -0.830536, 0.794891], "properties": {}}, {"name": "F", "species": [{"element": "F", "occu": 1}], "xyz": [3.949306, 1.612718, -0.412707], "properties": {}}, {"name": "F", "species": [{"element": "F", "occu": 1}], "xyz": [1.808957, 2.148447, -0.38957], "properties": {}}, {"name": "F", "species": [{"element": "F", "occu": 1}], "xyz": [-0.343698, -1.091218, -1.52959], "properties": {}}, {"name": "F", "species": [{"element": "F", "occu": 1}], "xyz": [0.718753, -1.059813, -3.433179], "properties": {}}, {"name": "F", "species": [{"element": "F", "occu": 1}], "xyz": [0.191992, -2.969324, -2.507684], "properties": {}}, {"name": "F", "species": [{"element": "F", "occu": 1}], "xyz": [4.151652, -2.622036, -1.57936], "properties": {}}, {"name": "F", "species": [{"element": "F", "occu": 1}], "xyz": [3.244583, 3.298601, 1.592595], "properties": {}}, {"name": "F", "species": [{"element": "F", "occu": 1}], "xyz": [1.787947, 1.872273, 2.3666], "properties": {}}, {"name": "F", "species": [{"element": "F", "occu": 1}], "xyz": [3.910032, 1.359873, 2.33566], "properties": {}}, {"name": "O", "species": [{"element": "O", "occu": 1}], "xyz": [2.316274, -0.404915, -1.174331], "properties": {}}, {"name": "C", "species": [{"element": "C", "occu": 1}], "xyz": [1.949543, -1.752951, -1.507645], "properties": {}}, {"name": "C", "species": [{"element": "C", "occu": 1}], "xyz": [2.392308, -0.081571, 0.138813], "properties": {}}, {"name": "C", "species": [{"element": "C", "occu": 1}], "xyz": [2.772412, 1.426825, 0.231497], "properties": {}}, {"name": "C", "species": [{"element": "C", "occu": 1}], "xyz": [0.607689, -1.703955, -2.250635], "properties": {}}, {"name": "C", "species": [{"element": "C", "occu": 1}], "xyz": [3.043082, -2.357601, -2.37969], "properties": {}}, {"name": "C", "species": [{"element": "C", "occu": 1}], "xyz": [2.931069, 1.995736, 1.675408], "properties": {}}, {"name": "H", "species": [{"element": "H", "occu": 1}], "xyz": [1.811298, -2.356445, -0.606597], "properties": {}}, {"name": "H", "species": [{"element": "H", "occu": 1}], "xyz": [2.70575, -3.299673, -2.822386], "properties": {}}, {"name": "H", "species": [{"element": "H", "occu": 1}], "xyz": [3.341202, -1.652621, -3.160527], "properties": {}}]}, "smiles": "FC(F)(O[C@@H](C(F)(F)F)CF)C(F)(F)C(F)(F)F", "inchi": "InChI=1S/C6H3F11O/c7-1-2(3(8,9)10)18-6(16,17)4(11,12)5(13,14)15/h2H,1H2/t2-/m1/s1", "formula_alphabetical": "C6 F11 H3 O1", "chemsys": "C-F-H-O", "energy": -1403.98762063, "esp": {"1": ["F", -0.185981], "2": ["F", -0.169987], "3": ["F", -0.117082], "4": ["F", -0.121934], "5": ["F", -0.142462], "6": ["F", -0.167854], "7": ["F", -0.182603], "8": ["F", -0.24151], "9": ["F", -0.158504], "10": ["F", -0.162692], "11": ["F", -0.16565], "12": ["O", -0.223457], "13": ["C", -0.07004], "14": ["C", 0.453447], "15": ["C", 0.12125], "16": ["C", 0.472845], "17": ["C", 0.149938], "18": ["C", 0.551743], "19": ["H", 0.184746], "20": ["H", 0.0797], "21": ["H", 0.096087]}, "dipole_moment": {"X": -0.198, "Y": -1.724, "Z": -1.2494, "Tot": 2.1383}, "functional": "B3LYP", "basis": "6-31+G*", "phase": "gas", "tag": "lis", "state": "successful", "wall_time (s)": 18.446950052981265, "version": "0.0.1", "gauss_version": "ES64L-G16RevC.01", "last_updated": "2021-09-09 18:50:16.546000", "polarizability": 84.02, "fluorinated-solvent": "20607895", "run_ids": ["613a4aff34f6967efffad001", "613a5764f8fc5e90f7ae0ef5"]}