{"_id": "613a5361cb15780369741a0f", "molecule": {"@module": "pymatgen.core.structure", "@class": "Molecule", "charge": 0, "spin_multiplicity": 1, "sites": [{"name": "F", "species": [{"element": "F", "occu": 1}], "xyz": [1.111332, 6.531809, 1.330733], "properties": {}}, {"name": "F", "species": [{"element": "F", "occu": 1}], "xyz": [2.977836, 6.132708, 0.271708], "properties": {}}, {"name": "F", "species": [{"element": "F", "occu": 1}], "xyz": [2.961101, 6.23464, 2.453098], "properties": {}}, {"name": "O", "species": [{"element": "O", "occu": 1}], "xyz": [1.041024, 2.401305, 0.457142], "properties": {}}, {"name": "C", "species": [{"element": "C", "occu": 1}], "xyz": [0.115314, 1.747966, -0.426044], "properties": {}}, {"name": "C", "species": [{"element": "C", "occu": 1}], "xyz": [0.577938, 1.785388, -1.89506], "properties": {}}, {"name": "C", "species": [{"element": "C", "occu": 1}], "xyz": [1.184933, 3.796411, 0.262095], "properties": {}}, {"name": "C", "species": [{"element": "C", "occu": 1}], "xyz": [1.984272, 4.317833, 1.455066], "properties": {}}, {"name": "C", "species": [{"element": "C", "occu": 1}], "xyz": [-0.056427, 0.336508, 0.125594], "properties": {}}, {"name": "C", "species": [{"element": "C", "occu": 1}], "xyz": [1.984252, 1.221952, -2.130293], "properties": {}}, {"name": "C", "species": [{"element": "C", "occu": 1}], "xyz": [2.257766, 5.800518, 1.377083], "properties": {}}, {"name": "H", "species": [{"element": "H", "occu": 1}], "xyz": [-0.85211, 2.276695, -0.35917], "properties": {}}, {"name": "H", "species": [{"element": "H", "occu": 1}], "xyz": [-0.159524, 1.229018, -2.489768], "properties": {}}, {"name": "H", "species": [{"element": "H", "occu": 1}], "xyz": [0.533332, 2.820533, -2.25912], "properties": {}}, {"name": "H", "species": [{"element": "H", "occu": 1}], "xyz": [0.199253, 4.285844, 0.215678], "properties": {}}, {"name": "H", "species": [{"element": "H", "occu": 1}], "xyz": [1.717639, 4.017833, -0.673763], "properties": {}}, {"name": "H", "species": [{"element": "H", "occu": 1}], "xyz": [2.948133, 3.802747, 1.510952], "properties": {}}, {"name": "H", "species": [{"element": "H", "occu": 1}], "xyz": [1.441782, 4.124513, 2.385234], "properties": {}}, {"name": "H", "species": [{"element": "H", "occu": 1}], "xyz": [-0.438734, 0.376509, 1.150664], "properties": {}}, {"name": "H", "species": [{"element": "H", "occu": 1}], "xyz": [-0.76217, -0.232686, -0.490259], "properties": {}}, {"name": "H", "species": [{"element": "H", "occu": 1}], "xyz": [0.900812, -0.19432, 0.141968], "properties": {}}, {"name": "H", "species": [{"element": "H", "occu": 1}], "xyz": [2.040274, 0.154577, -1.889274], "properties": {}}, {"name": "H", "species": [{"element": "H", "occu": 1}], "xyz": [2.278039, 1.341083, -3.179452], "properties": {}}, {"name": "H", "species": [{"element": "H", "occu": 1}], "xyz": [2.722283, 1.740594, -1.50833], "properties": {}}]}, "smiles": "FC(F)(F)CCO[C@@H](CC)C", "inchi": "InChI=1S/C7H13F3O/c1-3-6(2)11-5-4-7(8,9)10/h6H,3-5H2,1-2H3/t6-/m1/s1", "formula_alphabetical": "C7 F3 H13 O1", "chemsys": "C-F-H-O", "energy": -649.365421285, "esp": {"1": ["F", -0.248014], "2": ["F", -0.250365], "3": ["F", -0.241385], "4": ["O", -0.494832], "5": ["C", 0.33035], "6": ["C", 0.086161], "7": ["C", 0.433417], "8": ["C", -0.427476], "9": ["C", -0.421476], "10": ["C", -0.077255], "11": ["C", 0.725205], "12": ["H", -0.009381], "13": ["H", -0.016297], "14": ["H", -0.047428], "15": ["H", -0.032421], "16": ["H", -0.009494], "17": ["H", 0.146258], "18": ["H", 0.148597], "19": ["H", 0.118084], "20": ["H", 0.105215], "21": ["H", 0.121615], "22": ["H", 0.014278], "23": ["H", 0.023654], "24": ["H", 0.022991]}, "dipole_moment": {"X": -1.2472, "Y": -2.1457, "Z": -1.091, "Tot": 2.711}, "functional": "B3LYP", "basis": "6-31+G*", "phase": "gas", "tag": "lis", "state": "successful", "wall_time (s)": 11.128150315955281, "version": "0.0.1", "gauss_version": "ES64L-G16RevC.01", "last_updated": "2021-09-09 18:33:05.014000", "polarizability": 89.85, "fluorinated-solvent": "20725352", "run_ids": ["613a4ac1c32de9fa34feca05", "613a535899391aac700ca1d0"]}