{"_id": "61410c39148a69a2998d003f", "molecule": {"@module": "pymatgen.core.structure", "@class": "Molecule", "charge": 0, "spin_multiplicity": 1, "sites": [{"name": "F", "species": [{"element": "F", "occu": 1}], "xyz": [4.78938, -2.274252, 4.004285], "properties": {}}, {"name": "F", "species": [{"element": "F", "occu": 1}], "xyz": [3.989015, -3.480622, 2.326647], "properties": {}}, {"name": "F", "species": [{"element": "F", "occu": 1}], "xyz": [1.43342, 3.502496, 0.157549], "properties": {}}, {"name": "F", "species": [{"element": "F", "occu": 1}], "xyz": [0.449709, 3.856115, 2.111424], "properties": {}}, {"name": "O", "species": [{"element": "O", "occu": 1}], "xyz": [2.004868, -1.447984, 1.952739], "properties": {}}, {"name": "O", "species": [{"element": "O", "occu": 1}], "xyz": [0.90926, 1.094509, 2.721141], "properties": {}}, {"name": "C", "species": [{"element": "C", "occu": 1}], "xyz": [0.599938, -1.272271, 2.053764], "properties": {}}, {"name": "C", "species": [{"element": "C", "occu": 1}], "xyz": [0.179275, -0.101062, 2.950681], "properties": {}}, {"name": "C", "species": [{"element": "C", "occu": 1}], "xyz": [2.664271, -1.702767, 3.177452], "properties": {}}, {"name": "C", "species": [{"element": "C", "occu": 1}], "xyz": [0.805331, 1.615161, 1.410489], "properties": {}}, {"name": "C", "species": [{"element": "C", "occu": 1}], "xyz": [4.053066, -2.209724, 2.841354], "properties": {}}, {"name": "C", "species": [{"element": "C", "occu": 1}], "xyz": [1.330626, 3.036857, 1.450353], "properties": {}}, {"name": "H", "species": [{"element": "H", "occu": 1}], "xyz": [0.262423, -1.119987, 1.024244], "properties": {}}, {"name": "H", "species": [{"element": "H", "occu": 1}], "xyz": [0.117449, -2.189788, 2.432074], "properties": {}}, {"name": "H", "species": [{"element": "H", "occu": 1}], "xyz": [-0.902493, 0.069206, 2.814495], "properties": {}}, {"name": "H", "species": [{"element": "H", "occu": 1}], "xyz": [0.348411, -0.333703, 4.006278], "properties": {}}, {"name": "H", "species": [{"element": "H", "occu": 1}], "xyz": [2.148123, -2.475293, 3.7683], "properties": {}}, {"name": "H", "species": [{"element": "H", "occu": 1}], "xyz": [2.761538, -0.790271, 3.781356], "properties": {}}, {"name": "H", "species": [{"element": "H", "occu": 1}], "xyz": [1.410289, 1.03852, 0.697515], "properties": {}}, {"name": "H", "species": [{"element": "H", "occu": 1}], "xyz": [-0.238587, 1.642229, 1.061498], "properties": {}}, {"name": "H", "species": [{"element": "H", "occu": 1}], "xyz": [4.588902, -1.581822, 2.12371], "properties": {}}, {"name": "H", "species": [{"element": "H", "occu": 1}], "xyz": [2.307165, 3.131674, 1.93386], "properties": {}}]}, "smiles": "FC(F)COCCOCC(F)F", "inchi": "InChI=1S/C6H10F4O2/c7-5(8)3-11-1-2-12-4-6(9)10/h5-6H,1-4H2", "formula_alphabetical": "C6 F4 H10 O2", "chemsys": "C-F-H-O", "energy": -784.479958786, "esp": {"1": ["F", -0.262119], "2": ["F", -0.239605], "3": ["F", -0.262113], "4": ["F", -0.241202], "5": ["O", -0.349397], "6": ["O", -0.365654], "7": ["C", 0.02443], "8": ["C", 0.009485], "9": ["C", -0.043452], "10": ["C", 0.022134], "11": ["C", 0.408136], "12": ["C", 0.392521], "13": ["H", 0.087217], "14": ["H", 0.069516], "15": ["H", 0.071514], "16": ["H", 0.093608], "17": ["H", 0.122224], "18": ["H", 0.096931], "19": ["H", 0.076987], "20": ["H", 0.109638], "21": ["H", 0.08836], "22": ["H", 0.090841]}, "dipole_moment": {"X": -1.8933, "Y": -0.9039, "Z": 0.293, "Tot": 2.1184}, "functional": "B3LYP", "basis": "6-31+G*", "phase": "gas", "tag": "lis", "state": "successful", "wall_time (s)": 10.42113962105941, "version": "0.0.1", "gauss_version": "ES64L-G16RevC.01", "last_updated": "2021-09-14 20:55:21.121000", "polarizability": 83.45, "fluorinated-solvent": "118937461", "run_ids": ["61410b8ed16d60daeac6f43d", "61410c106b8b62853df7ffbf"]}