{"_id": "613a560d8ee664261355fe8b", "molecule": {"@module": "pymatgen.core.structure", "@class": "Molecule", "charge": 0, "spin_multiplicity": 1, "sites": [{"name": "F", "species": [{"element": "F", "occu": 1}], "xyz": [2.468383, 2.996175, -2.391311], "properties": {}}, {"name": "F", "species": [{"element": "F", "occu": 1}], "xyz": [4.248259, 2.560179, -1.197552], "properties": {}}, {"name": "F", "species": [{"element": "F", "occu": 1}], "xyz": [1.05539, -4.206501, 0.209768], "properties": {}}, {"name": "F", "species": [{"element": "F", "occu": 1}], "xyz": [-0.29128, -4.042017, -1.505603], "properties": {}}, {"name": "F", "species": [{"element": "F", "occu": 1}], "xyz": [3.915696, 2.760038, -4.738258], "properties": {}}, {"name": "F", "species": [{"element": "F", "occu": 1}], "xyz": [2.712031, -5.930079, -1.185066], "properties": {}}, {"name": "F", "species": [{"element": "F", "occu": 1}], "xyz": [5.691713, 4.7398, -4.457602], "properties": {}}, {"name": "F", "species": [{"element": "F", "occu": 1}], "xyz": [3.930394, 5.187315, -3.255562], "properties": {}}, {"name": "F", "species": [{"element": "F", "occu": 1}], "xyz": [5.772452, 4.518691, -2.289548], "properties": {}}, {"name": "F", "species": [{"element": "F", "occu": 1}], "xyz": [1.066747, -7.992282, -1.625643], "properties": {}}, {"name": "F", "species": [{"element": "F", "occu": 1}], "xyz": [0.380127, -6.894014, 0.126441], "properties": {}}, {"name": "F", "species": [{"element": "F", "occu": 1}], "xyz": [-0.691939, -6.710702, -1.768417], "properties": {}}, {"name": "O", "species": [{"element": "O", "occu": 1}], "xyz": [3.494047, 1.006051, -2.645613], "properties": {}}, {"name": "O", "species": [{"element": "O", "occu": 1}], "xyz": [1.846823, -3.362456, -1.723773], "properties": {}}, {"name": "C", "species": [{"element": "C", "occu": 1}], "xyz": [2.639432, -1.158596, -2.147161], "properties": {}}, {"name": "C", "species": [{"element": "C", "occu": 1}], "xyz": [2.573966, 0.312336, -1.764132], "properties": {}}, {"name": "C", "species": [{"element": "C", "occu": 1}], "xyz": [1.683979, -1.984791, -1.299129], "properties": {}}, {"name": "C", "species": [{"element": "C", "occu": 1}], "xyz": [3.663291, 2.326605, -2.424557], "properties": {}}, {"name": "C", "species": [{"element": "C", "occu": 1}], "xyz": [1.02386, -4.270506, -1.158495], "properties": {}}, {"name": "C", "species": [{"element": "C", "occu": 1}], "xyz": [4.575059, 2.886352, -3.533107], "properties": {}}, {"name": "C", "species": [{"element": "C", "occu": 1}], "xyz": [1.440383, -5.669265, -1.651964], "properties": {}}, {"name": "C", "species": [{"element": "C", "occu": 1}], "xyz": [4.983171, 4.362276, -3.372119], "properties": {}}, {"name": "C", "species": [{"element": "C", "occu": 1}], "xyz": [0.528616, -6.827203, -1.206251], "properties": {}}, {"name": "H", "species": [{"element": "H", "occu": 1}], "xyz": [2.383008, -1.27142, -3.206336], "properties": {}}, {"name": "H", "species": [{"element": "H", "occu": 1}], "xyz": [3.661415, -1.52927, -2.011207], "properties": {}}, {"name": "H", "species": [{"element": "H", "occu": 1}], "xyz": [2.883397, 0.47604, -0.72589], "properties": {}}, {"name": "H", "species": [{"element": "H", "occu": 1}], "xyz": [1.57027, 0.725861, -1.908073], "properties": {}}, {"name": "H", "species": [{"element": "H", "occu": 1}], "xyz": [1.922689, -1.915329, -0.232676], "properties": {}}, {"name": "H", "species": [{"element": "H", "occu": 1}], "xyz": [0.64135, -1.6853, -1.453149], "properties": {}}, {"name": "H", "species": [{"element": "H", "occu": 1}], "xyz": [5.489919, 2.287664, -3.559613], "properties": {}}, {"name": "H", "species": [{"element": "H", "occu": 1}], "xyz": [1.454572, -5.656993, -2.745465], "properties": {}}]}, "smiles": "FC(F)(OCCCOC(F)(F)[C@@H](F)C(F)(F)F)[C@@H](F)C(F)(F)F", "inchi": "InChI=1S/C9H8F12O2/c10-4(6(12,13)14)8(18,19)22-2-1-3-23-9(20,21)5(11)7(15,16)17/h4-5H,1-3H2/t4-,5-/m0/s1", "formula_alphabetical": "C9 F12 H8 O2", "chemsys": "C-F-H-O", "energy": -1696.40537579, "esp": {"1": ["F", -0.185179], "2": ["F", -0.206289], "3": ["F", -0.192899], "4": ["F", -0.216381], "5": ["F", -0.157446], "6": ["F", -0.15579], "7": ["F", -0.180618], "8": ["F", -0.16166], "9": ["F", -0.190741], "10": ["F", -0.169081], "11": ["F", -0.152916], "12": ["F", -0.180939], "13": ["O", -0.401403], "14": ["O", -0.354877], "15": ["C", -0.015205], "16": ["C", 0.258276], "17": ["C", 0.084051], "18": ["C", 0.496213], "19": ["C", 0.543847], "20": ["C", -0.076811], "21": ["C", -0.093895], "22": ["C", 0.556653], "23": ["C", 0.520438], "24": ["H", 0.053469], "25": ["H", 0.053213], "26": ["H", 0.017337], "27": ["H", 0.029615], "28": ["H", 0.067494], "29": ["H", 0.056569], "30": ["H", 0.177727], "31": ["H", 0.177229]}, "dipole_moment": {"X": 0.3486, "Y": -0.2194, "Z": -0.4183, "Tot": 0.5871}, "functional": "B3LYP", "basis": "6-31+G*", "phase": "gas", "tag": "lis", "state": "successful", "wall_time (s)": 29.164710576063953, "version": "0.0.1", "gauss_version": "ES64L-G16RevC.01", "last_updated": "2021-09-09 18:44:28.914000", "polarizability": 125.22, "fluorinated-solvent": "21902263", "run_ids": ["613a4ae87df283f998770f2b", "613a56042af6963427e2fb5c"]}