{"_id": "613a4ff2412a1d63dd7eaa1b", "molecule": {"@module": "pymatgen.core.structure", "@class": "Molecule", "charge": 0, "spin_multiplicity": 1, "sites": [{"name": "F", "species": [{"element": "F", "occu": 1}], "xyz": [0.976502, 0.276493, -0.0395], "properties": {}}, {"name": "F", "species": [{"element": "F", "occu": 1}], "xyz": [2.707704, 0.562672, 1.260647], "properties": {}}, {"name": "F", "species": [{"element": "F", "occu": 1}], "xyz": [4.332605, 0.8648, -0.997324], "properties": {}}, {"name": "F", "species": [{"element": "F", "occu": 1}], "xyz": [2.575994, 0.623057, -2.274451], "properties": {}}, {"name": "F", "species": [{"element": "F", "occu": 1}], "xyz": [1.674282, -1.992252, 1.627322], "properties": {}}, {"name": "F", "species": [{"element": "F", "occu": 1}], "xyz": [0.91839, -2.48316, -0.361985], "properties": {}}, {"name": "F", "species": [{"element": "F", "occu": 1}], "xyz": [3.382476, -3.653808, -1.001862], "properties": {}}, {"name": "F", "species": [{"element": "F", "occu": 1}], "xyz": [4.1127, -3.18735, 1.000197], "properties": {}}, {"name": "F", "species": [{"element": "F", "occu": 1}], "xyz": [3.922393, 3.202125, -2.438032], "properties": {}}, {"name": "F", "species": [{"element": "F", "occu": 1}], "xyz": [1.750481, 3.196905, -2.667545], "properties": {}}, {"name": "F", "species": [{"element": "F", "occu": 1}], "xyz": [3.624093, -5.819227, 2.131002], "properties": {}}, {"name": "O", "species": [{"element": "O", "occu": 1}], "xyz": [2.728468, -1.154068, -0.196563], "properties": {}}, {"name": "O", "species": [{"element": "O", "occu": 1}], "xyz": [2.637324, 2.334324, -0.780369], "properties": {}}, {"name": "O", "species": [{"element": "O", "occu": 1}], "xyz": [2.309978, -4.53141, 0.773514], "properties": {}}, {"name": "C", "species": [{"element": "C", "occu": 1}], "xyz": [2.319737, 0.144059, 0.034669], "properties": {}}, {"name": "C", "species": [{"element": "C", "occu": 1}], "xyz": [2.988753, 1.038046, -1.055283], "properties": {}}, {"name": "C", "species": [{"element": "C", "occu": 1}], "xyz": [2.039529, -2.220672, 0.347052], "properties": {}}, {"name": "C", "species": [{"element": "C", "occu": 1}], "xyz": [2.986215, -3.456138, 0.2908], "properties": {}}, {"name": "C", "species": [{"element": "C", "occu": 1}], "xyz": [2.751386, 3.344001, -1.750046], "properties": {}}, {"name": "C", "species": [{"element": "C", "occu": 1}], "xyz": [2.669858, 4.68564, -1.071717], "properties": {}}, {"name": "C", "species": [{"element": "C", "occu": 1}], "xyz": [3.025281, -5.746021, 0.89161], "properties": {}}, {"name": "H", "species": [{"element": "H", "occu": 1}], "xyz": [1.723804, 4.761775, -0.531161], "properties": {}}, {"name": "H", "species": [{"element": "H", "occu": 1}], "xyz": [3.503025, 4.791148, -0.373544], "properties": {}}, {"name": "H", "species": [{"element": "H", "occu": 1}], "xyz": [2.722838, 5.464966, -1.835327], "properties": {}}, {"name": "H", "species": [{"element": "H", "occu": 1}], "xyz": [2.279324, -6.537565, 0.821068], "properties": {}}, {"name": "H", "species": [{"element": "H", "occu": 1}], "xyz": [3.803151, -5.825088, 0.128157], "properties": {}}]}, "smiles": "FC(F)(OC(F)(F)C(F)(F)OCF)C(F)(F)OC(F)(F)C", "inchi": "InChI=1S/C7H5F11O3/c1-3(9,10)20-6(15,16)7(17,18)21-5(13,14)4(11,12)19-2-8/h2H2,1H3", "formula_alphabetical": "C7 F11 H5 O3", "chemsys": "C-F-H-O", "energy": -1593.7607268, "esp": {"1": ["F", -0.121157], "2": ["F", -0.138905], "3": ["F", -0.147005], "4": ["F", -0.132053], "5": ["F", -0.133413], "6": ["F", -0.161261], "7": ["F", -0.1754], "8": ["F", -0.141553], "9": ["F", -0.217169], "10": ["F", -0.231886], "11": ["F", -0.231266], "12": ["O", -0.284184], "13": ["O", -0.350674], "14": ["O", -0.314838], "15": ["C", 0.375684], "16": ["C", 0.393043], "17": ["C", 0.43718], "18": ["C", 0.406004], "19": ["C", 0.714904], "20": ["C", -0.578705], "21": ["C", 0.281369], "22": ["H", 0.190631], "23": ["H", 0.190668], "24": ["H", 0.185268], "25": ["H", 0.097982], "26": ["H", 0.086734]}, "dipole_moment": {"X": -0.341, "Y": 0.615, "Z": -0.2044, "Tot": 0.7323}, "functional": "B3LYP", "basis": "6-31+G*", "phase": "gas", "tag": "lis", "state": "successful", "wall_time (s)": 24.876756969024427, "version": "0.0.1", "gauss_version": "ES64L-G16RevC.01", "last_updated": "2021-09-09 18:18:26.649000", "polarizability": 105.37, "fluorinated-solvent": "23541092", "run_ids": ["613a4a8c4f191d5ba6bbc999", "613a4fea080972c6c94b1376"]}