{"_id": "6141136f08141ad4f4440f3f", "molecule": {"@module": "pymatgen.core.structure", "@class": "Molecule", "charge": 0, "spin_multiplicity": 1, "sites": [{"name": "F", "species": [{"element": "F", "occu": 1}], "xyz": [5.050941, 2.015755, -0.115015], "properties": {}}, {"name": "F", "species": [{"element": "F", "occu": 1}], "xyz": [4.38236, -0.016776, -0.546552], "properties": {}}, {"name": "F", "species": [{"element": "F", "occu": 1}], "xyz": [4.483228, 0.683328, 1.519969], "properties": {}}, {"name": "F", "species": [{"element": "F", "occu": 1}], "xyz": [1.089383, 3.899308, -2.840693], "properties": {}}, {"name": "F", "species": [{"element": "F", "occu": 1}], "xyz": [0.41958, 1.858585, -3.271747], "properties": {}}, {"name": "O", "species": [{"element": "O", "occu": 1}], "xyz": [0.974728, 2.403745, -1.148869], "properties": {}}, {"name": "C", "species": [{"element": "C", "occu": 1}], "xyz": [2.73488, 1.544003, 0.174892], "properties": {}}, {"name": "C", "species": [{"element": "C", "occu": 1}], "xyz": [2.352197, 1.970195, -1.237297], "properties": {}}, {"name": "C", "species": [{"element": "C", "occu": 1}], "xyz": [4.163889, 1.056386, 0.25762], "properties": {}}, {"name": "C", "species": [{"element": "C", "occu": 1}], "xyz": [0.405737, 2.833497, -2.299128], "properties": {}}, {"name": "H", "species": [{"element": "H", "occu": 1}], "xyz": [2.084799, 0.732924, 0.516213], "properties": {}}, {"name": "H", "species": [{"element": "H", "occu": 1}], "xyz": [2.627883, 2.384156, 0.867459], "properties": {}}, {"name": "H", "species": [{"element": "H", "occu": 1}], "xyz": [2.974841, 2.798702, -1.586878], "properties": {}}, {"name": "H", "species": [{"element": "H", "occu": 1}], "xyz": [2.428861, 1.136097, -1.940658], "properties": {}}, {"name": "H", "species": [{"element": "H", "occu": 1}], "xyz": [-0.624998, 3.130566, -2.103815], "properties": {}}]}, "smiles": "FC(F)(F)CCOC(F)F", "inchi": "InChI=1S/C4H5F5O/c5-3(6)10-2-1-4(7,8)9/h3H,1-2H2", "formula_alphabetical": "C4 F5 H5 O1", "chemsys": "C-F-H-O", "energy": -729.921793829, "esp": {"1": ["F", -0.219787], "2": ["F", -0.218735], "3": ["F", -0.207693], "4": ["F", -0.238531], "5": ["F", -0.237292], "6": ["O", -0.448378], "7": ["C", -0.402819], "8": ["C", 0.42124], "9": ["C", 0.618969], "10": ["C", 0.466509], "11": ["H", 0.155615], "12": ["H", 0.154974], "13": ["H", 0.021476], "14": ["H", 0.015733], "15": ["H", 0.118718]}, "dipole_moment": {"X": -1.7782, "Y": 0.3902, "Z": 0.9224, "Tot": 2.0408}, "functional": "B3LYP", "basis": "6-31+G*", "phase": "gas", "tag": "lis", "state": "successful", "wall_time (s)": 7.324567712959833, "version": "0.0.1", "gauss_version": "ES64L-G16RevC.01", "last_updated": "2021-09-14 21:26:07.374000", "polarizability": 56.19, "fluorinated-solvent": "87379451", "run_ids": ["614112aca3663a02fcbeaacf", "614113131ee1e2559244f63b"]}