{"_id": "61410c8d0520851793912c45", "molecule": {"@module": "pymatgen.core.structure", "@class": "Molecule", "charge": 0, "spin_multiplicity": 1, "sites": [{"name": "F", "species": [{"element": "F", "occu": 1}], "xyz": [4.800481, -1.377579, -2.069348], "properties": {}}, {"name": "F", "species": [{"element": "F", "occu": 1}], "xyz": [4.821326, 0.780666, -1.616383], "properties": {}}, {"name": "F", "species": [{"element": "F", "occu": 1}], "xyz": [6.485196, -0.697051, -0.029895], "properties": {}}, {"name": "F", "species": [{"element": "F", "occu": 1}], "xyz": [4.839174, 0.20293, 1.086878], "properties": {}}, {"name": "F", "species": [{"element": "F", "occu": 1}], "xyz": [4.815839, -1.93484, 0.63941], "properties": {}}, {"name": "O", "species": [{"element": "O", "occu": 1}], "xyz": [2.309281, -0.184935, -2.245562], "properties": {}}, {"name": "C", "species": [{"element": "C", "occu": 1}], "xyz": [4.398903, -0.436542, -1.166602], "properties": {}}, {"name": "C", "species": [{"element": "C", "occu": 1}], "xyz": [2.884322, -0.456839, -0.997287], "properties": {}}, {"name": "C", "species": [{"element": "C", "occu": 1}], "xyz": [0.880581, -0.169357, -2.218434], "properties": {}}, {"name": "C", "species": [{"element": "C", "occu": 1}], "xyz": [0.376555, 0.171393, -3.614212], "properties": {}}, {"name": "C", "species": [{"element": "C", "occu": 1}], "xyz": [5.159406, -0.721607, 0.15624], "properties": {}}, {"name": "C", "species": [{"element": "C", "occu": 1}], "xyz": [0.802643, 1.567273, -4.082553], "properties": {}}, {"name": "H", "species": [{"element": "H", "occu": 1}], "xyz": [2.593925, -1.448774, -0.617166], "properties": {}}, {"name": "H", "species": [{"element": "H", "occu": 1}], "xyz": [2.612411, 0.300704, -0.245811], "properties": {}}, {"name": "H", "species": [{"element": "H", "occu": 1}], "xyz": [0.507875, -1.155597, -1.8959], "properties": {}}, {"name": "H", "species": [{"element": "H", "occu": 1}], "xyz": [0.535028, 0.581616, -1.48699], "properties": {}}, {"name": "H", "species": [{"element": "H", "occu": 1}], "xyz": [0.745533, -0.591598, -4.311708], "properties": {}}, {"name": "H", "species": [{"element": "H", "occu": 1}], "xyz": [-0.719154, 0.090832, -3.602383], "properties": {}}, {"name": "H", "species": [{"element": "H", "occu": 1}], "xyz": [1.893659, 1.651596, -4.108374], "properties": {}}, {"name": "H", "species": [{"element": "H", "occu": 1}], "xyz": [0.418061, 1.777911, -5.087074], "properties": {}}, {"name": "H", "species": [{"element": "H", "occu": 1}], "xyz": [0.419458, 2.342876, -3.406416], "properties": {}}]}, "smiles": "FC(F)(COCCC)C(F)(F)F", "inchi": "InChI=1S/C6H9F5O/c1-2-3-12-4-5(7,8)6(9,10)11/h2-4H2,1H3", "formula_alphabetical": "C6 F5 H9 O1", "chemsys": "C-F-H-O", "energy": -808.523133923, "esp": {"1": ["F", -0.160952], "2": ["F", -0.154876], "3": ["F", -0.145302], "4": ["F", -0.180055], "5": ["F", -0.177662], "6": ["O", -0.228696], "7": ["C", 0.214567], "8": ["C", -0.04084], "9": ["C", -0.001676], "10": ["C", 0.108661], "11": ["C", 0.500085], "12": ["C", -0.214878], "13": ["H", 0.100896], "14": ["H", 0.098946], "15": ["H", 0.042357], "16": ["H", 0.057481], "17": ["H", 0.012145], "18": ["H", -0.001648], "19": ["H", 0.057615], "20": ["H", 0.055873], "21": ["H", 0.057957]}, "dipole_moment": {"X": -3.3224, "Y": -0.0853, "Z": 0.6171, "Tot": 3.3803}, "functional": "B3LYP", "basis": "6-31+G*", "phase": "gas", "tag": "lis", "state": "successful", "wall_time (s)": 12.146267963922583, "version": "0.0.1", "gauss_version": "ES64L-G16RevC.01", "last_updated": "2021-09-14 20:56:45.690000", "polarizability": 80.54, "fluorinated-solvent": "88850900", "run_ids": ["61410c22271f486a7d0d16f3", "61410c851ebff7942ea959ed"]}