{"_id": "61411c8ec281afbee278464e", "molecule": {"@module": "pymatgen.core.structure", "@class": "Molecule", "charge": 0, "spin_multiplicity": 1, "sites": [{"name": "F", "species": [{"element": "F", "occu": 1}], "xyz": [2.912656, -1.221783, 0.294907], "properties": {}}, {"name": "F", "species": [{"element": "F", "occu": 1}], "xyz": [3.170406, 0.931603, 0.736505], "properties": {}}, {"name": "F", "species": [{"element": "F", "occu": 1}], "xyz": [3.776383, 1.674231, -3.678917], "properties": {}}, {"name": "F", "species": [{"element": "F", "occu": 1}], "xyz": [1.732835, 0.966622, -3.984167], "properties": {}}, {"name": "F", "species": [{"element": "F", "occu": 1}], "xyz": [2.085917, 3.595584, -4.775109], "properties": {}}, {"name": "O", "species": [{"element": "O", "occu": 1}], "xyz": [2.38958, 1.540134, -1.90356], "properties": {}}, {"name": "C", "species": [{"element": "C", "occu": 1}], "xyz": [2.458315, 0.043004, -0.045528], "properties": {}}, {"name": "C", "species": [{"element": "C", "occu": 1}], "xyz": [2.861481, 0.242569, -1.500568], "properties": {}}, {"name": "C", "species": [{"element": "C", "occu": 1}], "xyz": [2.488611, 1.834083, -3.226869], "properties": {}}, {"name": "C", "species": [{"element": "C", "occu": 1}], "xyz": [0.988324, 0.159514, 0.276373], "properties": {}}, {"name": "C", "species": [{"element": "C", "occu": 1}], "xyz": [2.021018, 3.270064, -3.429936], "properties": {}}, {"name": "H", "species": [{"element": "H", "occu": 1}], "xyz": [3.950541, 0.192745, -1.58032], "properties": {}}, {"name": "H", "species": [{"element": "H", "occu": 1}], "xyz": [2.402107, -0.537944, -2.113579], "properties": {}}, {"name": "H", "species": [{"element": "H", "occu": 1}], "xyz": [0.42016, -0.573901, -0.303145], "properties": {}}, {"name": "H", "species": [{"element": "H", "occu": 1}], "xyz": [0.843348, -0.029982, 1.343201], "properties": {}}, {"name": "H", "species": [{"element": "H", "occu": 1}], "xyz": [0.636311, 1.164261, 0.031469], "properties": {}}, {"name": "H", "species": [{"element": "H", "occu": 1}], "xyz": [0.985716, 3.360564, -3.090049], "properties": {}}, {"name": "H", "species": [{"element": "H", "occu": 1}], "xyz": [2.675793, 3.940463, -2.866851], "properties": {}}]}, "smiles": "FC(F)(COC(F)(F)CF)C", "inchi": "InChI=1S/C5H7F5O/c1-4(7,8)3-11-5(9,10)2-6/h2-3H2,1H3", "formula_alphabetical": "C5 F5 H7 O1", "chemsys": "C-F-H-O", "energy": -769.225308454, "esp": {"1": ["F", -0.293666], "2": ["F", -0.256835], "3": ["F", -0.223237], "4": ["F", -0.233041], "5": ["F", -0.231404], "6": ["O", -0.408759], "7": ["C", 0.639373], "8": ["C", -0.131055], "9": ["C", 0.614993], "10": ["C", -0.4394], "11": ["C", 0.036858], "12": ["H", 0.148612], "13": ["H", 0.136792], "14": ["H", 0.140926], "15": ["H", 0.149624], "16": ["H", 0.133105], "17": ["H", 0.107176], "18": ["H", 0.109938]}, "dipole_moment": {"X": -2.016, "Y": 0.2447, "Z": 1.3876, "Tot": 2.4596}, "functional": "B3LYP", "basis": "6-31+G*", "phase": "gas", "tag": "lis", "state": "successful", "wall_time (s)": 9.014185957959853, "version": "0.0.1", "gauss_version": "ES64L-G16RevC.01", "last_updated": "2021-09-14 22:05:01.730000", "polarizability": 67.32, "fluorinated-solvent": "117861049", "run_ids": ["61411c779baf33cab6313707", "61411c87e434f3c1c4e32aad"]}