{"_id": "613a53e094b3ba9304572062", "molecule": {"@module": "pymatgen.core.structure", "@class": "Molecule", "charge": 0, "spin_multiplicity": 1, "sites": [{"name": "F", "species": [{"element": "F", "occu": 1}], "xyz": [4.984643, -0.589992, 2.094269], "properties": {}}, {"name": "F", "species": [{"element": "F", "occu": 1}], "xyz": [5.365769, -2.210312, 3.563016], "properties": {}}, {"name": "O", "species": [{"element": "O", "occu": 1}], "xyz": [2.691383, -2.557763, 0.427316], "properties": {}}, {"name": "C", "species": [{"element": "C", "occu": 1}], "xyz": [2.341875, -1.650613, 1.463031], "properties": {}}, {"name": "C", "species": [{"element": "C", "occu": 1}], "xyz": [3.174648, -2.008455, 2.6885], "properties": {}}, {"name": "C", "species": [{"element": "C", "occu": 1}], "xyz": [1.963578, -2.393999, -0.789809], "properties": {}}, {"name": "C", "species": [{"element": "C", "occu": 1}], "xyz": [2.290122, -1.102411, -1.548219], "properties": {}}, {"name": "C", "species": [{"element": "C", "occu": 1}], "xyz": [4.65943, -1.895962, 2.419304], "properties": {}}, {"name": "C", "species": [{"element": "C", "occu": 1}], "xyz": [3.790985, -0.921097, -1.798059], "properties": {}}, {"name": "H", "species": [{"element": "H", "occu": 1}], "xyz": [1.268137, -1.733513, 1.699286], "properties": {}}, {"name": "H", "species": [{"element": "H", "occu": 1}], "xyz": [2.544774, -0.612086, 1.166054], "properties": {}}, {"name": "H", "species": [{"element": "H", "occu": 1}], "xyz": [2.964285, -3.038691, 2.996164], "properties": {}}, {"name": "H", "species": [{"element": "H", "occu": 1}], "xyz": [2.928291, -1.34065, 3.522204], "properties": {}}, {"name": "H", "species": [{"element": "H", "occu": 1}], "xyz": [2.243311, -3.263048, -1.395634], "properties": {}}, {"name": "H", "species": [{"element": "H", "occu": 1}], "xyz": [0.881349, -2.456501, -0.584121], "properties": {}}, {"name": "H", "species": [{"element": "H", "occu": 1}], "xyz": [1.745342, -1.138897, -2.502272], "properties": {}}, {"name": "H", "species": [{"element": "H", "occu": 1}], "xyz": [1.892441, -0.23338, -1.007119], "properties": {}}, {"name": "H", "species": [{"element": "H", "occu": 1}], "xyz": [5.023491, -2.53373, 1.611316], "properties": {}}, {"name": "H", "species": [{"element": "H", "occu": 1}], "xyz": [4.20178, -1.77179, -2.356948], "properties": {}}, {"name": "H", "species": [{"element": "H", "occu": 1}], "xyz": [3.987674, -0.010429, -2.375382], "properties": {}}, {"name": "H", "species": [{"element": "H", "occu": 1}], "xyz": [4.340182, -0.848829, -0.85322], "properties": {}}]}, "smiles": "FC(F)CCOCCC", "inchi": "InChI=1S/C6H12F2O/c1-2-4-9-5-3-6(7)8/h6H,2-5H2,1H3", "formula_alphabetical": "C6 F2 H12 O1", "chemsys": "C-F-H-O", "energy": -510.792594898, "esp": {"1": ["F", -0.263588], "2": ["F", -0.286342], "3": ["O", -0.373839], "4": ["C", 0.135889], "5": ["C", -0.356654], "6": ["C", -0.063819], "7": ["C", 0.13974], "8": ["C", 0.531742], "9": ["C", -0.113037], "10": ["H", 0.059932], "11": ["H", 0.061233], "12": ["H", 0.132626], "13": ["H", 0.135787], "14": ["H", 0.102388], "15": ["H", 0.055241], "16": ["H", -0.017549], "17": ["H", -0.016828], "18": ["H", 0.045783], "19": ["H", 0.031864], "20": ["H", 0.023197], "21": ["H", 0.036235]}, "dipole_moment": {"X": -2.7474, "Y": -0.2251, "Z": -1.536, "Tot": 3.1556}, "functional": "B3LYP", "basis": "6-31+G*", "phase": "gas", "tag": "lis", "state": "successful", "wall_time (s)": 8.21913893497549, "version": "0.0.1", "gauss_version": "ES64L-G16RevC.01", "last_updated": "2021-09-09 18:35:11.985000", "polarizability": 77.24, "fluorinated-solvent": "53960503", "run_ids": ["613a4ac6e067443a4764fd6b", "613a53d8192cc5a8fb5505a7"]}