{"_id": "61412d11f4ac62f631e451c2", "molecule": {"@module": "pymatgen.core.structure", "@class": "Molecule", "charge": 0, "spin_multiplicity": 1, "sites": [{"name": "F", "species": [{"element": "F", "occu": 1}], "xyz": [1.845847, -2.329344, -1.900768], "properties": {}}, {"name": "F", "species": [{"element": "F", "occu": 1}], "xyz": [2.663479, -0.344524, -2.310669], "properties": {}}, {"name": "F", "species": [{"element": "F", "occu": 1}], "xyz": [1.153929, -0.605784, -0.754632], "properties": {}}, {"name": "O", "species": [{"element": "O", "occu": 1}], "xyz": [2.867942, -2.20956, 0.733127], "properties": {}}, {"name": "C", "species": [{"element": "C", "occu": 1}], "xyz": [3.365178, -1.400759, -0.303895], "properties": {}}, {"name": "C", "species": [{"element": "C", "occu": 1}], "xyz": [3.032839, -1.709293, 2.079454], "properties": {}}, {"name": "C", "species": [{"element": "C", "occu": 1}], "xyz": [4.575155, -2.078728, -0.998216], "properties": {}}, {"name": "C", "species": [{"element": "C", "occu": 1}], "xyz": [2.241496, -1.173905, -1.319525], "properties": {}}, {"name": "C", "species": [{"element": "C", "occu": 1}], "xyz": [2.008746, -0.618902, 2.391009], "properties": {}}, {"name": "C", "species": [{"element": "C", "occu": 1}], "xyz": [2.894366, -2.921268, 2.991151], "properties": {}}, {"name": "C", "species": [{"element": "C", "occu": 1}], "xyz": [4.568903, -3.502511, -1.33926], "properties": {}}, {"name": "H", "species": [{"element": "H", "occu": 1}], "xyz": [3.650532, -0.402325, 0.053353], "properties": {}}, {"name": "H", "species": [{"element": "H", "occu": 1}], "xyz": [4.052719, -1.299196, 2.170674], "properties": {}}, {"name": "H", "species": [{"element": "H", "occu": 1}], "xyz": [5.023391, -1.431869, -1.762648], "properties": {}}, {"name": "H", "species": [{"element": "H", "occu": 1}], "xyz": [5.373649, -2.198946, -0.221079], "properties": {}}, {"name": "H", "species": [{"element": "H", "occu": 1}], "xyz": [0.994025, -1.01873, 2.289839], "properties": {}}, {"name": "H", "species": [{"element": "H", "occu": 1}], "xyz": [2.14502, -0.255062, 3.416262], "properties": {}}, {"name": "H", "species": [{"element": "H", "occu": 1}], "xyz": [2.103925, 0.236127, 1.713554], "properties": {}}, {"name": "H", "species": [{"element": "H", "occu": 1}], "xyz": [3.643362, -3.68011, 2.742818], "properties": {}}, {"name": "H", "species": [{"element": "H", "occu": 1}], "xyz": [3.023815, -2.62743, 4.038718], "properties": {}}, {"name": "H", "species": [{"element": "H", "occu": 1}], "xyz": [1.900058, -3.36681, 2.874601], "properties": {}}, {"name": "H", "species": [{"element": "H", "occu": 1}], "xyz": [3.810625, -3.976721, -0.684047], "properties": {}}]}, "smiles": "FC(F)(F)[C@@H](OC(C)C)C[CH]", "inchi": "InChI=1S/C7H11F3O/c1-4-6(7(8,9)10)11-5(2)3/h1,5-6H,4H2,2-3H3/t6-/m0/s1", "formula_alphabetical": "C7 F3 H11 O1", "chemsys": "C-F-H-O", "energy": -648.003793592, "esp": {"1": ["F", -0.187788], "2": ["F", -0.267964], "3": ["F", -0.270168], "4": ["O", -0.814706], "5": ["C", 0.367032], "6": ["C", 1.091108], "7": ["C", 0.633793], "8": ["C", 0.699299], "9": ["C", -0.630337], "10": ["C", -0.665184], "11": ["C", -0.755212], "12": ["H", -0.149868], "13": ["H", -0.165507], "14": ["H", -0.135672], "15": ["H", 0.031749], "16": ["H", 0.165252], "17": ["H", 0.101962], "18": ["H", 0.173462], "19": ["H", 0.16752], "20": ["H", 0.128457], "21": ["H", 0.161457], "22": ["H", 0.321317]}, "dipole_moment": {"X": 0.8837, "Y": 2.2247, "Z": 4.0562, "Tot": 4.7099}, "functional": "B3LYP", "basis": "6-31+G*", "phase": "gas", "tag": "lis", "state": "successful", "wall_time (s)": 12.087671573041007, "version": "0.0.1", "gauss_version": "ES64L-G16RevC.01", "last_updated": "2021-09-14 23:15:29.093000", "polarizability": 91.41, "fluorinated-solvent": "59344306", "run_ids": ["61412cf5b9f69d2196a40c1f", "61412d098971e3cc8a6c32af"]}