{"_id": "61410bdaf9f8df5dab2c4a8a", "molecule": {"@module": "pymatgen.core.structure", "@class": "Molecule", "charge": 0, "spin_multiplicity": 1, "sites": [{"name": "F", "species": [{"element": "F", "occu": 1}], "xyz": [1.274228, -0.678814, 0.503332], "properties": {}}, {"name": "F", "species": [{"element": "F", "occu": 1}], "xyz": [3.400004, -1.173233, 0.582921], "properties": {}}, {"name": "F", "species": [{"element": "F", "occu": 1}], "xyz": [4.022646, 1.55985, 0.632188], "properties": {}}, {"name": "F", "species": [{"element": "F", "occu": 1}], "xyz": [1.894267, 2.034934, 0.5837], "properties": {}}, {"name": "F", "species": [{"element": "F", "occu": 1}], "xyz": [2.331848, -2.093355, -1.822146], "properties": {}}, {"name": "F", "species": [{"element": "F", "occu": 1}], "xyz": [0.774914, -0.612626, -2.221742], "properties": {}}, {"name": "F", "species": [{"element": "F", "occu": 1}], "xyz": [2.543159, 0.840582, -3.780437], "properties": {}}, {"name": "F", "species": [{"element": "F", "occu": 1}], "xyz": [4.105776, -0.674563, -3.388508], "properties": {}}, {"name": "F", "species": [{"element": "F", "occu": 1}], "xyz": [1.674913, 2.182833, 3.747764], "properties": {}}, {"name": "F", "species": [{"element": "F", "occu": 1}], "xyz": [3.709135, 1.49473, 4.155592], "properties": {}}, {"name": "O", "species": [{"element": "O", "occu": 1}], "xyz": [2.64541, 0.052289, -1.148746], "properties": {}}, {"name": "O", "species": [{"element": "O", "occu": 1}], "xyz": [2.704662, 0.823818, 2.303636], "properties": {}}, {"name": "C", "species": [{"element": "C", "occu": 1}], "xyz": [2.511042, -0.233676, 0.194629], "properties": {}}, {"name": "C", "species": [{"element": "C", "occu": 1}], "xyz": [2.790907, 1.088275, 0.969827], "properties": {}}, {"name": "C", "species": [{"element": "C", "occu": 1}], "xyz": [2.116934, -0.78479, -2.109884], "properties": {}}, {"name": "C", "species": [{"element": "C", "occu": 1}], "xyz": [2.766186, -0.463838, -3.472368], "properties": {}}, {"name": "C", "species": [{"element": "C", "occu": 1}], "xyz": [2.870906, 1.902453, 3.180431], "properties": {}}, {"name": "H", "species": [{"element": "H", "occu": 1}], "xyz": [2.341745, -1.103575, -4.25184], "properties": {}}, {"name": "H", "species": [{"element": "H", "occu": 1}], "xyz": [3.266578, 2.795358, 2.692473], "properties": {}}]}, "smiles": "FC(F)(OC(F)(F)C(F)F)C(F)(F)OC(F)F", "inchi": "InChI=1S/C5H2F10O2/c6-1(7)3(10,11)17-5(14,15)4(12,13)16-2(8)9/h1-2H", "formula_alphabetical": "C5 F10 H2 O2", "chemsys": "C-F-H-O", "energy": -1340.65582028, "esp": {"1": ["F", -0.122346], "2": ["F", -0.145842], "3": ["F", -0.132167], "4": ["F", -0.127226], "5": ["F", -0.112993], "6": ["F", -0.12269], "7": ["F", -0.174093], "8": ["F", -0.171317], "9": ["F", -0.206356], "10": ["F", -0.203037], "11": ["O", -0.155366], "12": ["O", -0.240999], "13": ["C", 0.452464], "14": ["C", 0.217959], "15": ["C", 0.195127], "16": ["C", 0.275682], "17": ["C", 0.516306], "18": ["H", 0.150453], "19": ["H", 0.10644]}, "dipole_moment": {"X": 0.0554, "Y": 0.3463, "Z": -1.7096, "Tot": 1.7452}, "functional": "B3LYP", "basis": "6-31+G*", "phase": "gas", "tag": "lis", "state": "successful", "wall_time (s)": 14.909842558088712, "version": "0.0.1", "gauss_version": "ES64L-G16RevC.01", "last_updated": "2021-09-14 20:53:45.838000", "polarizability": 77.07, "fluorinated-solvent": "117743056", "run_ids": ["61410a7ef2ff69527194acd0", "61410b322e38dbe82929d147"]}