{"_id": "6141232e9c6f1c31e30f47ac", "molecule": {"@module": "pymatgen.core.structure", "@class": "Molecule", "charge": 0, "spin_multiplicity": 1, "sites": [{"name": "F", "species": [{"element": "F", "occu": 1}], "xyz": [1.20548, -0.003718, -0.297796], "properties": {}}, {"name": "F", "species": [{"element": "F", "occu": 1}], "xyz": [2.851697, 1.174127, 0.52887], "properties": {}}, {"name": "F", "species": [{"element": "F", "occu": 1}], "xyz": [2.886458, 0.861993, -2.229981], "properties": {}}, {"name": "O", "species": [{"element": "O", "occu": 1}], "xyz": [2.899297, -1.07399, 0.739452], "properties": {}}, {"name": "C", "species": [{"element": "C", "occu": 1}], "xyz": [2.565444, -0.039446, -0.065972], "properties": {}}, {"name": "C", "species": [{"element": "C", "occu": 1}], "xyz": [3.314709, -0.177023, -1.396511], "properties": {}}, {"name": "C", "species": [{"element": "C", "occu": 1}], "xyz": [2.278129, -1.113597, 2.053962], "properties": {}}, {"name": "C", "species": [{"element": "C", "occu": 1}], "xyz": [2.727587, -2.398606, 2.731579], "properties": {}}, {"name": "C", "species": [{"element": "C", "occu": 1}], "xyz": [4.821785, -0.110358, -1.243817], "properties": {}}, {"name": "C", "species": [{"element": "C", "occu": 1}], "xyz": [2.249351, -3.664842, 2.012375], "properties": {}}, {"name": "H", "species": [{"element": "H", "occu": 1}], "xyz": [2.986133, -1.11592, -1.85458], "properties": {}}, {"name": "H", "species": [{"element": "H", "occu": 1}], "xyz": [2.596232, -0.228615, 2.614639], "properties": {}}, {"name": "H", "species": [{"element": "H", "occu": 1}], "xyz": [1.189916, -1.087724, 1.92816], "properties": {}}, {"name": "H", "species": [{"element": "H", "occu": 1}], "xyz": [3.822858, -2.393292, 2.806562], "properties": {}}, {"name": "H", "species": [{"element": "H", "occu": 1}], "xyz": [2.339758, -2.377489, 3.759184], "properties": {}}, {"name": "H", "species": [{"element": "H", "occu": 1}], "xyz": [5.173936, -0.931049, -0.612048], "properties": {}}, {"name": "H", "species": [{"element": "H", "occu": 1}], "xyz": [5.288803, -0.19202, -2.229783], "properties": {}}, {"name": "H", "species": [{"element": "H", "occu": 1}], "xyz": [5.113322, 0.841239, -0.789723], "properties": {}}, {"name": "H", "species": [{"element": "H", "occu": 1}], "xyz": [2.643333, -3.707464, 0.991591], "properties": {}}, {"name": "H", "species": [{"element": "H", "occu": 1}], "xyz": [2.579888, -4.565056, 2.54282], "properties": {}}, {"name": "H", "species": [{"element": "H", "occu": 1}], "xyz": [1.153873, -3.692441, 1.951436], "properties": {}}]}, "smiles": "FC(F)(OCCC)[C@@H](F)C", "inchi": "InChI=1S/C6H11F3O/c1-3-4-10-6(8,9)5(2)7/h5H,3-4H2,1-2H3/t5-/m0/s1", "formula_alphabetical": "C6 F3 H11 O1", "chemsys": "C-F-H-O", "energy": -610.05291114, "esp": {"1": ["F", -0.208394], "2": ["F", -0.182666], "3": ["F", -0.274678], "4": ["O", -0.288344], "5": ["C", 0.335079], "6": ["C", 0.32379], "7": ["C", 0.047909], "8": ["C", 0.028628], "9": ["C", -0.374768], "10": ["C", -0.163681], "11": ["H", 0.06348], "12": ["H", 0.06081], "13": ["H", 0.089936], "14": ["H", 0.03557], "15": ["H", 0.0166], "16": ["H", 0.099606], "17": ["H", 0.122425], "18": ["H", 0.130652], "19": ["H", 0.037677], "20": ["H", 0.050935], "21": ["H", 0.049433]}, "dipole_moment": {"X": 1.395, "Y": -2.6909, "Z": 1.9401, "Tot": 3.5987}, "functional": "B3LYP", "basis": "6-31+G*", "phase": "gas", "tag": "lis", "state": "successful", "wall_time (s)": 8.837298388942145, "version": "0.0.1", "gauss_version": "ES64L-G16RevC.01", "last_updated": "2021-09-14 22:33:18.363000", "polarizability": 77.65, "fluorinated-solvent": "88558542", "run_ids": ["614123186a58b9fcc364a666", "614123280635f16c50535471"]}