{"_id": "61411c72c2808e007608476f", "molecule": {"@module": "pymatgen.core.structure", "@class": "Molecule", "charge": 0, "spin_multiplicity": 1, "sites": [{"name": "F", "species": [{"element": "F", "occu": 1}], "xyz": [0.799931, 0.072286, 0.047338], "properties": {}}, {"name": "F", "species": [{"element": "F", "occu": 1}], "xyz": [2.365003, -1.342235, 0.597219], "properties": {}}, {"name": "F", "species": [{"element": "F", "occu": 1}], "xyz": [1.271265, -1.54499, -2.131908], "properties": {}}, {"name": "F", "species": [{"element": "F", "occu": 1}], "xyz": [2.788506, -0.534023, -3.329043], "properties": {}}, {"name": "F", "species": [{"element": "F", "occu": 1}], "xyz": [3.371615, -2.044224, -1.877915], "properties": {}}, {"name": "F", "species": [{"element": "F", "occu": 1}], "xyz": [2.594972, 3.100169, 2.672724], "properties": {}}, {"name": "F", "species": [{"element": "F", "occu": 1}], "xyz": [2.133523, 1.64935, 4.241226], "properties": {}}, {"name": "F", "species": [{"element": "F", "occu": 1}], "xyz": [4.096884, 1.650475, 3.280906], "properties": {}}, {"name": "O", "species": [{"element": "O", "occu": 1}], "xyz": [2.66641, -0.012497, -1.220047], "properties": {}}, {"name": "O", "species": [{"element": "O", "occu": 1}], "xyz": [2.26615, 0.928365, 2.1934], "properties": {}}, {"name": "C", "species": [{"element": "C", "occu": 1}], "xyz": [2.142764, -0.111742, 0.071011], "properties": {}}, {"name": "C", "species": [{"element": "C", "occu": 1}], "xyz": [2.835507, 0.974108, 0.88319], "properties": {}}, {"name": "C", "species": [{"element": "C", "occu": 1}], "xyz": [2.513615, -1.04085, -2.124217], "properties": {}}, {"name": "C", "species": [{"element": "C", "occu": 1}], "xyz": [2.764461, 1.815982, 3.079449], "properties": {}}, {"name": "H", "species": [{"element": "H", "occu": 1}], "xyz": [3.907149, 0.75919, 0.913182], "properties": {}}, {"name": "H", "species": [{"element": "H", "occu": 1}], "xyz": [2.650584, 1.941717, 0.408515], "properties": {}}]}, "smiles": "FC(F)(OC(F)(F)F)COC(F)(F)F", "inchi": "InChI=1S/C4H2F8O2/c5-2(6,14-4(10,11)12)1-13-3(7,8)9/h1H2", "formula_alphabetical": "C4 F8 H2 O2", "chemsys": "C-F-H-O", "energy": -1102.87617802, "esp": {"1": ["F", -0.202352], "2": ["F", -0.203682], "3": ["F", -0.190232], "4": ["F", -0.181738], "5": ["F", -0.200226], "6": ["F", -0.206905], "7": ["F", -0.171921], "8": ["F", -0.207886], "9": ["O", -0.450336], "10": ["O", -0.349059], "11": ["C", 0.669791], "12": ["C", -0.050158], "13": ["C", 0.767553], "14": ["C", 0.713812], "15": ["H", 0.130166], "16": ["H", 0.13317]}, "dipole_moment": {"X": 1.1529, "Y": 0.9551, "Z": -0.8599, "Tot": 1.7265}, "functional": "B3LYP", "basis": "6-31+G*", "phase": "gas", "tag": "lis", "state": "successful", "wall_time (s)": 9.55190970597323, "version": "0.0.1", "gauss_version": "ES64L-G16RevC.01", "last_updated": "2021-09-14 22:04:33.934000", "polarizability": 63.5, "fluorinated-solvent": "155264396", "run_ids": ["61411c527e1b55e2bd54192d", "61411c6ccb318293c82e7857"]}