{"_id": "61410e34a1abf21a640eb64d", "molecule": {"@module": "pymatgen.core.structure", "@class": "Molecule", "charge": 0, "spin_multiplicity": 1, "sites": [{"name": "F", "species": [{"element": "F", "occu": 1}], "xyz": [2.792585, -2.804155, 1.840467], "properties": {}}, {"name": "F", "species": [{"element": "F", "occu": 1}], "xyz": [1.175679, -2.040857, 0.573939], "properties": {}}, {"name": "O", "species": [{"element": "O", "occu": 1}], "xyz": [2.920163, -0.690233, 1.056264], "properties": {}}, {"name": "C", "species": [{"element": "C", "occu": 1}], "xyz": [2.862334, 1.338014, 2.359883], "properties": {}}, {"name": "C", "species": [{"element": "C", "occu": 1}], "xyz": [2.300683, -0.075312, 2.215805], "properties": {}}, {"name": "C", "species": [{"element": "C", "occu": 1}], "xyz": [4.375987, 1.321338, 2.621174], "properties": {}}, {"name": "C", "species": [{"element": "C", "occu": 1}], "xyz": [2.507146, 2.214107, 1.149097], "properties": {}}, {"name": "C", "species": [{"element": "C", "occu": 1}], "xyz": [2.552635, -1.958959, 0.760771], "properties": {}}, {"name": "C", "species": [{"element": "C", "occu": 1}], "xyz": [3.27036, -2.469584, -0.46321], "properties": {}}, {"name": "H", "species": [{"element": "H", "occu": 1}], "xyz": [2.3625, 1.755507, 3.247621], "properties": {}}, {"name": "H", "species": [{"element": "H", "occu": 1}], "xyz": [1.215783, -0.055656, 2.06438], "properties": {}}, {"name": "H", "species": [{"element": "H", "occu": 1}], "xyz": [2.528688, -0.682746, 3.098609], "properties": {}}, {"name": "H", "species": [{"element": "H", "occu": 1}], "xyz": [4.911766, 0.903395, 1.761636], "properties": {}}, {"name": "H", "species": [{"element": "H", "occu": 1}], "xyz": [4.750669, 2.337081, 2.794383], "properties": {}}, {"name": "H", "species": [{"element": "H", "occu": 1}], "xyz": [4.623245, 0.714099, 3.500941], "properties": {}}, {"name": "H", "species": [{"element": "H", "occu": 1}], "xyz": [1.423347, 2.24292, 0.980523], "properties": {}}, {"name": "H", "species": [{"element": "H", "occu": 1}], "xyz": [2.853994, 3.24318, 1.30017], "properties": {}}, {"name": "H", "species": [{"element": "H", "occu": 1}], "xyz": [2.979605, 1.826222, 0.239774], "properties": {}}, {"name": "H", "species": [{"element": "H", "occu": 1}], "xyz": [4.347955, -2.450925, -0.28403], "properties": {}}, {"name": "H", "species": [{"element": "H", "occu": 1}], "xyz": [2.947779, -3.492888, -0.667679], "properties": {}}, {"name": "H", "species": [{"element": "H", "occu": 1}], "xyz": [3.030728, -1.829568, -1.31563], "properties": {}}]}, "smiles": "FC(F)(OCC(C)C)C", "inchi": "InChI=1S/C6H12F2O/c1-5(2)4-9-6(3,7)8/h5H,4H2,1-3H3", "formula_alphabetical": "C6 F2 H12 O1", "chemsys": "C-F-H-O", "energy": -510.81711231, "esp": {"1": ["F", -0.273194], "2": ["F", -0.274848], "3": ["O", -0.333399], "4": ["C", 0.414616], "5": ["C", -0.131699], "6": ["C", -0.351091], "7": ["C", -0.38273], "8": ["C", 0.726597], "9": ["C", -0.565794], "10": ["H", -0.04852], "11": ["H", 0.096507], "12": ["H", 0.094901], "13": ["H", 0.08694], "14": ["H", 0.079192], "15": ["H", 0.079339], "16": ["H", 0.087834], "17": ["H", 0.088521], "18": ["H", 0.092947], "19": ["H", 0.168126], "20": ["H", 0.176327], "21": ["H", 0.169429]}, "dipole_moment": {"X": 0.7954, "Y": 1.2746, "Z": -0.2477, "Tot": 1.5227}, "functional": "B3LYP", "basis": "6-31+G*", "phase": "gas", "tag": "lis", "state": "successful", "wall_time (s)": 12.949452862958424, "version": "0.0.1", "gauss_version": "ES64L-G16RevC.01", "last_updated": "2021-09-14 21:03:48.129000", "polarizability": 77.25, "fluorinated-solvent": "148894204", "run_ids": ["61410dd25b78e44c5f389d74", "61410e0c4a0ef59b4b0570e2"]}