{"_id": "614127b2810779142656dcad", "molecule": {"@module": "pymatgen.core.structure", "@class": "Molecule", "charge": 0, "spin_multiplicity": 1, "sites": [{"name": "F", "species": [{"element": "F", "occu": 1}], "xyz": [2.652126, -1.450317, -3.134392], "properties": {}}, {"name": "F", "species": [{"element": "F", "occu": 1}], "xyz": [1.221662, -0.232866, -2.013751], "properties": {}}, {"name": "F", "species": [{"element": "F", "occu": 1}], "xyz": [2.898621, 1.238694, -3.587218], "properties": {}}, {"name": "F", "species": [{"element": "F", "occu": 1}], "xyz": [3.231147, 1.62488, -1.465218], "properties": {}}, {"name": "F", "species": [{"element": "F", "occu": 1}], "xyz": [4.658722, 0.417214, -2.593529], "properties": {}}, {"name": "O", "species": [{"element": "O", "occu": 1}], "xyz": [3.016456, -1.077995, -0.93645], "properties": {}}, {"name": "C", "species": [{"element": "C", "occu": 1}], "xyz": [2.941574, -2.609706, 0.932594], "properties": {}}, {"name": "C", "species": [{"element": "C", "occu": 1}], "xyz": [2.393445, -2.309326, -0.454103], "properties": {}}, {"name": "C", "species": [{"element": "C", "occu": 1}], "xyz": [2.417185, -1.712545, 2.067313], "properties": {}}, {"name": "C", "species": [{"element": "C", "occu": 1}], "xyz": [2.551854, -0.572659, -2.082818], "properties": {}}, {"name": "C", "species": [{"element": "C", "occu": 1}], "xyz": [2.891973, -0.25367, 2.021286], "properties": {}}, {"name": "C", "species": [{"element": "C", "occu": 1}], "xyz": [3.35613, 0.708622, -2.44101], "properties": {}}, {"name": "H", "species": [{"element": "H", "occu": 1}], "xyz": [2.672436, -3.652926, 1.149581], "properties": {}}, {"name": "H", "species": [{"element": "H", "occu": 1}], "xyz": [4.038581, -2.571902, 0.890753], "properties": {}}, {"name": "H", "species": [{"element": "H", "occu": 1}], "xyz": [1.307537, -2.165643, -0.435381], "properties": {}}, {"name": "H", "species": [{"element": "H", "occu": 1}], "xyz": [2.640904, -3.105312, -1.163398], "properties": {}}, {"name": "H", "species": [{"element": "H", "occu": 1}], "xyz": [1.317497, -1.744304, 2.066962], "properties": {}}, {"name": "H", "species": [{"element": "H", "occu": 1}], "xyz": [2.73296, -2.160281, 3.019439], "properties": {}}, {"name": "H", "species": [{"element": "H", "occu": 1}], "xyz": [2.515829, 0.270852, 1.138618], "properties": {}}, {"name": "H", "species": [{"element": "H", "occu": 1}], "xyz": [2.551498, 0.289365, 2.911034], "properties": {}}, {"name": "H", "species": [{"element": "H", "occu": 1}], "xyz": [3.987584, -0.199319, 1.992155], "properties": {}}]}, "smiles": "FC(F)(OCCCC)C(F)(F)F", "inchi": "InChI=1S/C6H9F5O/c1-2-3-4-12-6(10,11)5(7,8)9/h2-4H2,1H3", "formula_alphabetical": "C6 F5 H9 O1", "chemsys": "C-F-H-O", "energy": -808.537523218, "esp": {"1": ["F", -0.177501], "2": ["F", -0.173938], "3": ["F", -0.16717], "4": ["F", -0.169136], "5": ["F", -0.167337], "6": ["O", -0.316758], "7": ["C", -0.203166], "8": ["C", 0.171547], "9": ["C", 0.243302], "10": ["C", 0.321941], "11": ["C", -0.274431], "12": ["C", 0.522627], "13": ["H", 0.039258], "14": ["H", 0.085782], "15": ["H", 0.066268], "16": ["H", 0.062375], "17": ["H", -0.036366], "18": ["H", -0.028103], "19": ["H", 0.084218], "20": ["H", 0.055967], "21": ["H", 0.060622]}, "dipole_moment": {"X": -0.3869, "Y": -2.3403, "Z": 2.1868, "Tot": 3.2263}, "functional": "B3LYP", "basis": "6-31+G*", "phase": "gas", "tag": "lis", "state": "successful", "wall_time (s)": 11.58989353501238, "version": "0.0.1", "gauss_version": "ES64L-G16RevC.01", "last_updated": "2021-09-14 22:52:33.838000", "polarizability": 79.71, "fluorinated-solvent": "85790718", "run_ids": ["6141279609f4c2de6bf489e6", "614127a9c18093745c763826"]}