{"_id": "613a502eb3f845dd5950a9c2", "molecule": {"@module": "pymatgen.core.structure", "@class": "Molecule", "charge": 0, "spin_multiplicity": 1, "sites": [{"name": "F", "species": [{"element": "F", "occu": 1}], "xyz": [1.139529, -0.192741, 0.348828], "properties": {}}, {"name": "F", "species": [{"element": "F", "occu": 1}], "xyz": [2.632182, -0.880372, -1.130961], "properties": {}}, {"name": "F", "species": [{"element": "F", "occu": 1}], "xyz": [3.087371, -1.908737, 1.321771], "properties": {}}, {"name": "F", "species": [{"element": "F", "occu": 1}], "xyz": [4.633236, -0.413721, 0.791223], "properties": {}}, {"name": "F", "species": [{"element": "F", "occu": 1}], "xyz": [4.06385, 3.761499, 0.034138], "properties": {}}, {"name": "F", "species": [{"element": "F", "occu": 1}], "xyz": [1.94223, 4.033155, -0.354434], "properties": {}}, {"name": "F", "species": [{"element": "F", "occu": 1}], "xyz": [2.688684, 4.099214, 1.698972], "properties": {}}, {"name": "O", "species": [{"element": "O", "occu": 1}], "xyz": [2.62324, 2.16853, 0.697991], "properties": {}}, {"name": "C", "species": [{"element": "C", "occu": 1}], "xyz": [2.446722, -0.079287, -0.040447], "properties": {}}, {"name": "C", "species": [{"element": "C", "occu": 1}], "xyz": [2.740535, 1.347987, -0.477193], "properties": {}}, {"name": "C", "species": [{"element": "C", "occu": 1}], "xyz": [3.316312, -0.583343, 1.127131], "properties": {}}, {"name": "C", "species": [{"element": "C", "occu": 1}], "xyz": [2.826281, 3.491479, 0.519037], "properties": {}}, {"name": "H", "species": [{"element": "H", "occu": 1}], "xyz": [3.753415, 1.402633, -0.883898], "properties": {}}, {"name": "H", "species": [{"element": "H", "occu": 1}], "xyz": [2.002872, 1.63917, -1.23033], "properties": {}}, {"name": "H", "species": [{"element": "H", "occu": 1}], "xyz": [3.109309, -0.038477, 2.051032], "properties": {}}]}, "smiles": "FC(F)(COC(F)(F)F)C(F)F", "inchi": "InChI=1S/C4H3F7O/c5-2(6)3(7,8)1-12-4(9,10)11/h2H,1H2", "formula_alphabetical": "C4 F7 H3 O1", "chemsys": "C-F-H-O", "energy": -928.394913718, "esp": {"1": ["F", -0.203765], "2": ["F", -0.200021], "3": ["F", -0.192864], "4": ["F", -0.194597], "5": ["F", -0.202286], "6": ["F", -0.202715], "7": ["F", -0.178908], "8": ["O", -0.348771], "9": ["C", 0.416594], "10": ["C", -0.131494], "11": ["C", 0.297732], "12": ["C", 0.717067], "13": ["H", 0.136773], "14": ["H", 0.173951], "15": ["H", 0.113305]}, "dipole_moment": {"X": 0.0842, "Y": 0.8941, "Z": -0.3854, "Tot": 0.9773}, "functional": "B3LYP", "basis": "6-31+G*", "phase": "gas", "tag": "lis", "state": "successful", "wall_time (s)": 8.097625709953718, "version": "0.0.1", "gauss_version": "ES64L-G16RevC.01", "last_updated": "2021-09-09 18:19:26.338000", "polarizability": 57.61, "fluorinated-solvent": "23233646", "run_ids": ["613a4a8b8aa241b6cc112919", "613a501c5f3cb2767daba484"]}