{"_id": "613a53c9a569aa702013af2d", "molecule": {"@module": "pymatgen.core.structure", "@class": "Molecule", "charge": 0, "spin_multiplicity": 1, "sites": [{"name": "F", "species": [{"element": "F", "occu": 1}], "xyz": [0.901111, -0.459282, 0.495305], "properties": {}}, {"name": "F", "species": [{"element": "F", "occu": 1}], "xyz": [2.808099, -1.164938, 1.292297], "properties": {}}, {"name": "F", "species": [{"element": "F", "occu": 1}], "xyz": [2.543504, -0.918002, -0.858457], "properties": {}}, {"name": "F", "species": [{"element": "F", "occu": 1}], "xyz": [2.973311, 3.000191, 1.740301], "properties": {}}, {"name": "F", "species": [{"element": "F", "occu": 1}], "xyz": [1.159767, 1.829974, 2.029979], "properties": {}}, {"name": "F", "species": [{"element": "F", "occu": 1}], "xyz": [3.070522, 1.08757, 2.783785], "properties": {}}, {"name": "F", "species": [{"element": "F", "occu": 1}], "xyz": [3.882426, 3.170957, -1.013001], "properties": {}}, {"name": "F", "species": [{"element": "F", "occu": 1}], "xyz": [3.624283, 1.39575, -2.248404], "properties": {}}, {"name": "F", "species": [{"element": "F", "occu": 1}], "xyz": [1.419837, 4.141135, -1.874893], "properties": {}}, {"name": "F", "species": [{"element": "F", "occu": 1}], "xyz": [2.820832, 3.665142, -3.516923], "properties": {}}, {"name": "O", "species": [{"element": "O", "occu": 1}], "xyz": [2.135973, 1.800826, -0.601838], "properties": {}}, {"name": "C", "species": [{"element": "C", "occu": 1}], "xyz": [2.765179, 1.049146, 0.427902], "properties": {}}, {"name": "C", "species": [{"element": "C", "occu": 1}], "xyz": [2.234481, -0.397015, 0.345267], "properties": {}}, {"name": "C", "species": [{"element": "C", "occu": 1}], "xyz": [2.47511, 1.750721, 1.771585], "properties": {}}, {"name": "C", "species": [{"element": "C", "occu": 1}], "xyz": [2.941404, 2.357381, -1.558523], "properties": {}}, {"name": "C", "species": [{"element": "C", "occu": 1}], "xyz": [2.039037, 3.131654, -2.541295], "properties": {}}, {"name": "H", "species": [{"element": "H", "occu": 1}], "xyz": [3.850523, 1.009398, 0.304938], "properties": {}}, {"name": "H", "species": [{"element": "H", "occu": 1}], "xyz": [1.29014, 2.472992, -2.989743], "properties": {}}]}, "smiles": "FC(F)(F)C(OC(F)(F)C(F)F)C(F)(F)F", "inchi": "InChI=1S/C5H2F10O/c6-2(7)5(14,15)16-1(3(8,9)10)4(11,12)13/h1-2H", "formula_alphabetical": "C5 F10 H2 O1", "chemsys": "C-F-H-O", "energy": -1265.43906299, "esp": {"1": ["F", -0.157575], "2": ["F", -0.180418], "3": ["F", -0.163076], "4": ["F", -0.171909], "5": ["F", -0.16165], "6": ["F", -0.194335], "7": ["F", -0.144118], "8": ["F", -0.185074], "9": ["F", -0.182942], "10": ["F", -0.195059], "11": ["O", -0.293704], "12": ["C", -0.212305], "13": ["C", 0.56488], "14": ["C", 0.606538], "15": ["C", 0.413717], "16": ["C", 0.315568], "17": ["H", 0.218896], "18": ["H", 0.122565]}, "dipole_moment": {"X": 0.0482, "Y": -0.9755, "Z": -0.6677, "Tot": 1.1831}, "functional": "B3LYP", "basis": "6-31+G*", "phase": "gas", "tag": "lis", "state": "successful", "wall_time (s)": 14.918657720903866, "version": "0.0.1", "gauss_version": "ES64L-G16RevC.01", "last_updated": "2021-09-09 18:34:49.610000", "polarizability": 71.78, "fluorinated-solvent": "23206986", "run_ids": ["613a4ac64695dd5a8d50557b", "613a53c3d5ae5c5668d9d1c0"]}