{"_id": "61411e8251c43fc1c865ed55", "molecule": {"@module": "pymatgen.core.structure", "@class": "Molecule", "charge": 0, "spin_multiplicity": 1, "sites": [{"name": "F", "species": [{"element": "F", "occu": 1}], "xyz": [1.371766, 0.119755, 0.333289], "properties": {}}, {"name": "F", "species": [{"element": "F", "occu": 1}], "xyz": [2.99149, 1.538937, 0.001575], "properties": {}}, {"name": "F", "species": [{"element": "F", "occu": 1}], "xyz": [3.413345, -0.398597, 0.879914], "properties": {}}, {"name": "F", "species": [{"element": "F", "occu": 1}], "xyz": [2.381682, -0.028485, -3.766289], "properties": {}}, {"name": "F", "species": [{"element": "F", "occu": 1}], "xyz": [0.991904, 0.820664, -2.319393], "properties": {}}, {"name": "F", "species": [{"element": "F", "occu": 1}], "xyz": [2.943017, 1.738272, -2.637525], "properties": {}}, {"name": "O", "species": [{"element": "O", "occu": 1}], "xyz": [2.759494, -2.632209, -0.643232], "properties": {}}, {"name": "C", "species": [{"element": "C", "occu": 1}], "xyz": [2.907763, -0.374219, -1.464652], "properties": {}}, {"name": "C", "species": [{"element": "C", "occu": 1}], "xyz": [2.197474, -1.745758, -1.584315], "properties": {}}, {"name": "C", "species": [{"element": "C", "occu": 1}], "xyz": [2.665121, 0.223928, -0.052984], "properties": {}}, {"name": "C", "species": [{"element": "C", "occu": 1}], "xyz": [2.300512, 0.556964, -2.540959], "properties": {}}, {"name": "C", "species": [{"element": "C", "occu": 1}], "xyz": [4.422426, -0.506512, -1.71165], "properties": {}}, {"name": "C", "species": [{"element": "C", "occu": 1}], "xyz": [2.126919, -3.910815, -0.628674], "properties": {}}, {"name": "C", "species": [{"element": "C", "occu": 1}], "xyz": [2.821258, -4.768726, 0.4148], "properties": {}}, {"name": "H", "species": [{"element": "H", "occu": 1}], "xyz": [1.118363, -1.623599, -1.412529], "properties": {}}, {"name": "H", "species": [{"element": "H", "occu": 1}], "xyz": [2.342357, -2.1245, -2.606532], "properties": {}}, {"name": "H", "species": [{"element": "H", "occu": 1}], "xyz": [4.930203, 0.44987, -1.564014], "properties": {}}, {"name": "H", "species": [{"element": "H", "occu": 1}], "xyz": [4.835567, -1.245624, -1.024602], "properties": {}}, {"name": "H", "species": [{"element": "H", "occu": 1}], "xyz": [4.599086, -0.842969, -2.737131], "properties": {}}, {"name": "H", "species": [{"element": "H", "occu": 1}], "xyz": [1.057415, -3.79, -0.390339], "properties": {}}, {"name": "H", "species": [{"element": "H", "occu": 1}], "xyz": [2.19828, -4.370588, -1.628829], "properties": {}}, {"name": "H", "species": [{"element": "H", "occu": 1}], "xyz": [2.746918, -4.302735, 1.402927], "properties": {}}, {"name": "H", "species": [{"element": "H", "occu": 1}], "xyz": [2.356964, -5.760717, 0.459196], "properties": {}}, {"name": "H", "species": [{"element": "H", "occu": 1}], "xyz": [3.881542, -4.890506, 0.168587], "properties": {}}]}, "smiles": "FC(F)(F)C(COCC)(C(F)(F)F)C", "inchi": "InChI=1S/C7H10F6O/c1-3-14-4-5(2,6(8,9)10)7(11,12)13/h3-4H2,1-2H3", "formula_alphabetical": "C7 F6 H10 O1", "chemsys": "C-F-H-O", "energy": -947.094447608, "esp": {"1": ["F", -0.211676], "2": ["F", -0.227755], "3": ["F", -0.220234], "4": ["F", -0.191142], "5": ["F", -0.192711], "6": ["F", -0.176529], "7": ["O", -0.283458], "8": ["C", 0.057727], "9": ["C", -0.18381], "10": ["C", 0.655009], "11": ["C", 0.49501], "12": ["C", -0.357754], "13": ["C", 0.281111], "14": ["C", -0.329715], "15": ["H", 0.103463], "16": ["H", 0.124664], "17": ["H", 0.116195], "18": ["H", 0.124528], "19": ["H", 0.130527], "20": ["H", 0.008013], "21": ["H", -0.000197], "22": ["H", 0.098736], "23": ["H", 0.084512], "24": ["H", 0.095487]}, "dipole_moment": {"X": 0.4784, "Y": -3.2204, "Z": -0.8697, "Tot": 3.3699}, "functional": "B3LYP", "basis": "6-31+G*", "phase": "gas", "tag": "lis", "state": "successful", "wall_time (s)": 15.688230095081963, "version": "0.0.1", "gauss_version": "ES64L-G16RevC.01", "last_updated": "2021-09-14 22:13:22.627000", "polarizability": 91.35, "fluorinated-solvent": "147753235", "run_ids": ["61411e61969d75a261ab9fe0", "61411e7a8f3cdb3e11dd8770"]}