{"_id": "613a54374dc4fad09ff331b3", "molecule": {"@module": "pymatgen.core.structure", "@class": "Molecule", "charge": 0, "spin_multiplicity": 1, "sites": [{"name": "F", "species": [{"element": "F", "occu": 1}], "xyz": [1.811366, -2.311314, -2.043415], "properties": {}}, {"name": "F", "species": [{"element": "F", "occu": 1}], "xyz": [3.015954, -0.575285, -2.599602], "properties": {}}, {"name": "F", "species": [{"element": "F", "occu": 1}], "xyz": [1.358583, -0.353669, -1.196004], "properties": {}}, {"name": "F", "species": [{"element": "F", "occu": 1}], "xyz": [0.983993, -0.65511, 2.567357], "properties": {}}, {"name": "F", "species": [{"element": "F", "occu": 1}], "xyz": [2.769917, -0.289006, 3.772069], "properties": {}}, {"name": "F", "species": [{"element": "F", "occu": 1}], "xyz": [2.609708, 0.556428, 1.76467], "properties": {}}, {"name": "O", "species": [{"element": "O", "occu": 1}], "xyz": [2.568619, -2.027357, 0.621787], "properties": {}}, {"name": "C", "species": [{"element": "C", "occu": 1}], "xyz": [3.340866, -1.434159, -0.419705], "properties": {}}, {"name": "C", "species": [{"element": "C", "occu": 1}], "xyz": [3.003176, -1.800235, 1.95169], "properties": {}}, {"name": "C", "species": [{"element": "C", "occu": 1}], "xyz": [2.362271, -1.172685, -1.567253], "properties": {}}, {"name": "C", "species": [{"element": "C", "occu": 1}], "xyz": [2.324703, -0.540377, 2.512634], "properties": {}}, {"name": "C", "species": [{"element": "C", "occu": 1}], "xyz": [4.488765, -2.345372, -0.846678], "properties": {}}, {"name": "C", "species": [{"element": "C", "occu": 1}], "xyz": [2.658815, -3.031355, 2.780344], "properties": {}}, {"name": "H", "species": [{"element": "H", "occu": 1}], "xyz": [3.709435, -0.446537, -0.119792], "properties": {}}, {"name": "H", "species": [{"element": "H", "occu": 1}], "xyz": [4.083521, -1.601102, 1.987841], "properties": {}}, {"name": "H", "species": [{"element": "H", "occu": 1}], "xyz": [5.06341, -1.896112, -1.662428], "properties": {}}, {"name": "H", "species": [{"element": "H", "occu": 1}], "xyz": [5.163963, -2.506319, 0.000229], "properties": {}}, {"name": "H", "species": [{"element": "H", "occu": 1}], "xyz": [4.099109, -3.314513, -1.17089], "properties": {}}, {"name": "H", "species": [{"element": "H", "occu": 1}], "xyz": [3.206801, -3.890817, 2.384704], "properties": {}}, {"name": "H", "species": [{"element": "H", "occu": 1}], "xyz": [2.929279, -2.885462, 3.830226], "properties": {}}, {"name": "H", "species": [{"element": "H", "occu": 1}], "xyz": [1.587193, -3.238724, 2.711203], "properties": {}}]}, "smiles": "FC(F)(F)[C@@H](O[C@@H](C(F)(F)F)C)C", "inchi": "InChI=1S/C6H8F6O/c1-3(5(7,8)9)13-4(2)6(10,11)12/h3-4H,1-2H3/t3-,4+", "formula_alphabetical": "C6 F6 H8 O1", "chemsys": "C-F-H-O", "energy": -907.790631287, "esp": {"1": ["F", -0.189119], "2": ["F", -0.215786], "3": ["F", -0.197203], "4": ["F", -0.165894], "5": ["F", -0.206495], "6": ["F", -0.195688], "7": ["O", -0.44983], "8": ["C", 0.304266], "9": ["C", 0.294725], "10": ["C", 0.529802], "11": ["C", 0.479405], "12": ["C", -0.397193], "13": ["C", -0.432631], "14": ["H", 0.028115], "15": ["H", 0.040958], "16": ["H", 0.108155], "17": ["H", 0.124387], "18": ["H", 0.130094], "19": ["H", 0.143741], "20": ["H", 0.120352], "21": ["H", 0.145839]}, "dipole_moment": {"X": 3.3624, "Y": -1.9137, "Z": 1.2008, "Tot": 4.0509}, "functional": "B3LYP", "basis": "6-31+G*", "phase": "gas", "tag": "lis", "state": "successful", "wall_time (s)": 11.75313168100547, "version": "0.0.1", "gauss_version": "ES64L-G16RevC.01", "last_updated": "2021-09-09 18:36:39.547000", "polarizability": 79.77, "fluorinated-solvent": "18446147", "run_ids": ["613a4acec28766c2dac3014c", "613a542e7de8dda546c12aa1"]}