{"_id": "6141193af6062ad2da5f5957", "molecule": {"@module": "pymatgen.core.structure", "@class": "Molecule", "charge": 0, "spin_multiplicity": 1, "sites": [{"name": "F", "species": [{"element": "F", "occu": 1}], "xyz": [5.135756, -1.602716, -1.737506], "properties": {}}, {"name": "F", "species": [{"element": "F", "occu": 1}], "xyz": [5.202837, -3.63529, -2.533466], "properties": {}}, {"name": "F", "species": [{"element": "F", "occu": 1}], "xyz": [5.315539, -3.301088, -0.378378], "properties": {}}, {"name": "O", "species": [{"element": "O", "occu": 1}], "xyz": [1.214422, -2.317849, -0.358622], "properties": {}}, {"name": "C", "species": [{"element": "C", "occu": 1}], "xyz": [3.207018, -2.970804, -1.439879], "properties": {}}, {"name": "C", "species": [{"element": "C", "occu": 1}], "xyz": [2.622076, -2.126643, -0.310876], "properties": {}}, {"name": "C", "species": [{"element": "C", "occu": 1}], "xyz": [4.711961, -2.87718, -1.520915], "properties": {}}, {"name": "C", "species": [{"element": "C", "occu": 1}], "xyz": [0.494803, -1.562735, 0.616479], "properties": {}}, {"name": "C", "species": [{"element": "C", "occu": 1}], "xyz": [0.780569, -1.955467, 2.002948], "properties": {}}, {"name": "C", "species": [{"element": "C", "occu": 1}], "xyz": [1.029726, -2.280881, 3.143031], "properties": {}}, {"name": "C", "species": [{"element": "C", "occu": 1}], "xyz": [1.324283, -2.677679, 4.519029], "properties": {}}, {"name": "H", "species": [{"element": "H", "occu": 1}], "xyz": [2.799787, -2.649244, -2.403221], "properties": {}}, {"name": "H", "species": [{"element": "H", "occu": 1}], "xyz": [2.944809, -4.022948, -1.29349], "properties": {}}, {"name": "H", "species": [{"element": "H", "occu": 1}], "xyz": [3.023975, -2.445234, 0.660541], "properties": {}}, {"name": "H", "species": [{"element": "H", "occu": 1}], "xyz": [2.868437, -1.062673, -0.453045], "properties": {}}, {"name": "H", "species": [{"element": "H", "occu": 1}], "xyz": [0.70102, -0.487531, 0.48206], "properties": {}}, {"name": "H", "species": [{"element": "H", "occu": 1}], "xyz": [-0.561444, -1.730727, 0.382652], "properties": {}}, {"name": "H", "species": [{"element": "H", "occu": 1}], "xyz": [1.661107, -1.821572, 5.116185], "properties": {}}, {"name": "H", "species": [{"element": "H", "occu": 1}], "xyz": [0.439069, -3.103438, 5.006889], "properties": {}}, {"name": "H", "species": [{"element": "H", "occu": 1}], "xyz": [2.116728, -3.435759, 4.544415], "properties": {}}]}, "smiles": "FC(F)(F)CCOCC#CC", "inchi": "InChI=1S/C7H9F3O/c1-2-3-5-11-6-4-7(8,9)10/h4-6H2,1H3", "formula_alphabetical": "C7 F3 H9 O1", "chemsys": "C-F-H-O", "energy": -646.883364664, "esp": {"1": ["F", -0.240755], "2": ["F", -0.2383], "3": ["F", -0.242141], "4": ["O", -0.447752], "5": ["C", -0.411928], "6": ["C", 0.333787], "7": ["C", 0.706287], "8": ["C", 0.252481], "9": ["C", -0.298772], "10": ["C", 0.0777], "11": ["C", -0.318937], "12": ["H", 0.143061], "13": ["H", 0.161442], "14": ["H", 0.015211], "15": ["H", 0.011358], "16": ["H", 0.029979], "17": ["H", 0.082967], "18": ["H", 0.117387], "19": ["H", 0.125954], "20": ["H", 0.140969]}, "dipole_moment": {"X": -1.8533, "Y": 0.5537, "Z": 1.9722, "Tot": 2.7623}, "functional": "B3LYP", "basis": "6-31+G*", "phase": "gas", "tag": "lis", "state": "successful", "wall_time (s)": 9.191800056956708, "version": "0.0.1", "gauss_version": "ES64L-G16RevC.01", "last_updated": "2021-09-14 21:50:50.422000", "polarizability": 88.24, "fluorinated-solvent": "150966765", "run_ids": ["61411924bb28deccbc45d578", "61411934b3bde8ba635087c4"]}