{"_id": "613a54e2443af0246c4f0c2d", "molecule": {"@module": "pymatgen.core.structure", "@class": "Molecule", "charge": 0, "spin_multiplicity": 1, "sites": [{"name": "F", "species": [{"element": "F", "occu": 1}], "xyz": [1.054439, 0.530608, -0.139276], "properties": {}}, {"name": "F", "species": [{"element": "F", "occu": 1}], "xyz": [2.316529, -0.61719, 1.225288], "properties": {}}, {"name": "F", "species": [{"element": "F", "occu": 1}], "xyz": [2.670004, 2.087029, 1.43158], "properties": {}}, {"name": "F", "species": [{"element": "F", "occu": 1}], "xyz": [4.457326, 1.086021, 0.678311], "properties": {}}, {"name": "F", "species": [{"element": "F", "occu": 1}], "xyz": [3.194822, 2.238437, -0.681259], "properties": {}}, {"name": "F", "species": [{"element": "F", "occu": 1}], "xyz": [2.493245, -3.470506, -2.873797], "properties": {}}, {"name": "F", "species": [{"element": "F", "occu": 1}], "xyz": [2.754394, -1.407374, -3.641167], "properties": {}}, {"name": "O", "species": [{"element": "O", "occu": 1}], "xyz": [2.886479, -0.500621, -0.952526], "properties": {}}, {"name": "C", "species": [{"element": "C", "occu": 1}], "xyz": [2.347459, 0.153054, 0.093494], "properties": {}}, {"name": "C", "species": [{"element": "C", "occu": 1}], "xyz": [2.231028, -1.72003, -1.352639], "properties": {}}, {"name": "C", "species": [{"element": "C", "occu": 1}], "xyz": [3.191241, 1.426284, 0.386245], "properties": {}}, {"name": "C", "species": [{"element": "C", "occu": 1}], "xyz": [2.985157, -2.22448, -2.568134], "properties": {}}, {"name": "H", "species": [{"element": "H", "occu": 1}], "xyz": [2.289919, -2.460804, -0.550113], "properties": {}}, {"name": "H", "species": [{"element": "H", "occu": 1}], "xyz": [1.188548, -1.528228, -1.622287], "properties": {}}, {"name": "H", "species": [{"element": "H", "occu": 1}], "xyz": [4.066511, -2.298017, -2.420297], "properties": {}}]}, "smiles": "FC(F)(OCC(F)F)C(F)(F)F", "inchi": "InChI=1S/C4H3F7O/c5-2(6)1-12-4(10,11)3(7,8)9/h2H,1H2", "formula_alphabetical": "C4 F7 H3 O1", "chemsys": "C-F-H-O", "energy": -928.392786575, "esp": {"1": ["F", -0.160467], "2": ["F", -0.163224], "3": ["F", -0.150865], "4": ["F", -0.14855], "5": ["F", -0.141827], "6": ["F", -0.258155], "7": ["F", -0.226383], "8": ["O", -0.323482], "9": ["C", 0.364647], "10": ["C", -0.043546], "11": ["C", 0.458056], "12": ["C", 0.43229], "13": ["H", 0.119718], "14": ["H", 0.153719], "15": ["H", 0.088067]}, "dipole_moment": {"X": 0.3069, "Y": -1.4868, "Z": 0.5085, "Tot": 1.6011}, "functional": "B3LYP", "basis": "6-31+G*", "phase": "gas", "tag": "lis", "state": "successful", "wall_time (s)": 9.551736942958087, "version": "0.0.1", "gauss_version": "ES64L-G16RevC.01", "last_updated": "2021-09-09 18:39:29.756000", "polarizability": 58.38, "fluorinated-solvent": "22178537", "run_ids": ["613a4ad7940e9ffe800352d7", "613a54d6a40946f561ec7e04"]}