{"_id": "613a4ed4d3818df84ffe561b", "molecule": {"@module": "pymatgen.core.structure", "@class": "Molecule", "charge": 0, "spin_multiplicity": 1, "sites": [{"name": "F", "species": [{"element": "F", "occu": 1}], "xyz": [1.449927, -0.581053, 0.025341], "properties": {}}, {"name": "F", "species": [{"element": "F", "occu": 1}], "xyz": [2.800083, 0.993959, 0.712251], "properties": {}}, {"name": "F", "species": [{"element": "F", "occu": 1}], "xyz": [3.604822, -0.876119, -0.071942], "properties": {}}, {"name": "O", "species": [{"element": "O", "occu": 1}], "xyz": [2.291282, -0.282006, -2.628545], "properties": {}}, {"name": "C", "species": [{"element": "C", "occu": 1}], "xyz": [2.663576, 0.664158, -1.651662], "properties": {}}, {"name": "C", "species": [{"element": "C", "occu": 1}], "xyz": [1.761155, 1.897492, -1.797783], "properties": {}}, {"name": "C", "species": [{"element": "C", "occu": 1}], "xyz": [2.61518, 0.044328, -0.242673], "properties": {}}, {"name": "C", "species": [{"element": "C", "occu": 1}], "xyz": [0.256382, 1.626131, -1.676166], "properties": {}}, {"name": "C", "species": [{"element": "C", "occu": 1}], "xyz": [3.29613, -1.2124, -3.056442], "properties": {}}, {"name": "C", "species": [{"element": "C", "occu": 1}], "xyz": [2.759679, -1.93087, -4.282527], "properties": {}}, {"name": "H", "species": [{"element": "H", "occu": 1}], "xyz": [3.712849, 0.972893, -1.78726], "properties": {}}, {"name": "H", "species": [{"element": "H", "occu": 1}], "xyz": [2.077119, 2.648412, -1.06437], "properties": {}}, {"name": "H", "species": [{"element": "H", "occu": 1}], "xyz": [1.980802, 2.306844, -2.791184], "properties": {}}, {"name": "H", "species": [{"element": "H", "occu": 1}], "xyz": [-0.021048, 1.319942, -0.662873], "properties": {}}, {"name": "H", "species": [{"element": "H", "occu": 1}], "xyz": [-0.305974, 2.534663, -1.919714], "properties": {}}, {"name": "H", "species": [{"element": "H", "occu": 1}], "xyz": [-0.051785, 0.83491, -2.366401], "properties": {}}, {"name": "H", "species": [{"element": "H", "occu": 1}], "xyz": [4.221772, -0.66362, -3.293642], "properties": {}}, {"name": "H", "species": [{"element": "H", "occu": 1}], "xyz": [3.521932, -1.925044, -2.253535], "properties": {}}, {"name": "H", "species": [{"element": "H", "occu": 1}], "xyz": [2.54683, -1.218157, -5.086551], "properties": {}}, {"name": "H", "species": [{"element": "H", "occu": 1}], "xyz": [3.494684, -2.659625, -4.644057], "properties": {}}, {"name": "H", "species": [{"element": "H", "occu": 1}], "xyz": [1.834123, -2.46323, -4.038544], "properties": {}}]}, "smiles": "FC(F)(F)[C@@H](OCC)CC", "inchi": "InChI=1S/C6H11F3O/c1-3-5(10-4-2)6(7,8)9/h5H,3-4H2,1-2H3/t5-/m0/s1", "formula_alphabetical": "C6 F3 H11 O1", "chemsys": "C-F-H-O", "energy": -610.04552184, "esp": {"1": ["F", -0.170801], "2": ["F", -0.199731], "3": ["F", -0.220752], "4": ["O", -0.345079], "5": ["C", 0.05114], "6": ["C", 0.009266], "7": ["C", 0.517022], "8": ["C", -0.198995], "9": ["C", 0.251558], "10": ["C", -0.322916], "11": ["H", 0.060556], "12": ["H", 0.024498], "13": ["H", 0.05052], "14": ["H", 0.066455], "15": ["H", 0.062014], "16": ["H", 0.050734], "17": ["H", 0.010574], "18": ["H", 0.026596], "19": ["H", 0.09602], "20": ["H", 0.081486], "21": ["H", 0.099833]}, "dipole_moment": {"X": 0.9514, "Y": 0.703, "Z": -2.0319, "Tot": 2.3512}, "functional": "B3LYP", "basis": "6-31+G*", "phase": "gas", "tag": "lis", "state": "successful", "wall_time (s)": 9.840267817024142, "version": "0.0.1", "gauss_version": "ES64L-G16RevC.01", "last_updated": "2021-09-09 18:13:40.137000", "polarizability": 78.31, "fluorinated-solvent": "22394974", "run_ids": ["613a4a4d6a725aff862af06a", "613a4ecd0b0c87d22dd5efbf"]}