{"_id": "613a547e9dd6a37ed39af084", "molecule": {"@module": "pymatgen.core.structure", "@class": "Molecule", "charge": 0, "spin_multiplicity": 1, "sites": [{"name": "F", "species": [{"element": "F", "occu": 1}], "xyz": [1.363211, -0.04847, 0.399263], "properties": {}}, {"name": "F", "species": [{"element": "F", "occu": 1}], "xyz": [3.358757, -0.120239, 1.367929], "properties": {}}, {"name": "O", "species": [{"element": "O", "occu": 1}], "xyz": [2.902102, -0.15882, -2.755806], "properties": {}}, {"name": "C", "species": [{"element": "C", "occu": 1}], "xyz": [3.079011, -1.294325, -0.668293], "properties": {}}, {"name": "C", "species": [{"element": "C", "occu": 1}], "xyz": [2.422973, -1.290015, -2.043816], "properties": {}}, {"name": "C", "species": [{"element": "C", "occu": 1}], "xyz": [2.722861, -0.068191, 0.143341], "properties": {}}, {"name": "C", "species": [{"element": "C", "occu": 1}], "xyz": [2.334972, -0.019168, -4.054811], "properties": {}}, {"name": "C", "species": [{"element": "C", "occu": 1}], "xyz": [2.923365, 1.222397, -4.703942], "properties": {}}, {"name": "H", "species": [{"element": "H", "occu": 1}], "xyz": [4.168799, -1.323644, -0.777223], "properties": {}}, {"name": "H", "species": [{"element": "H", "occu": 1}], "xyz": [2.765016, -2.178985, -0.102196], "properties": {}}, {"name": "H", "species": [{"element": "H", "occu": 1}], "xyz": [2.676819, -2.218514, -2.581265], "properties": {}}, {"name": "H", "species": [{"element": "H", "occu": 1}], "xyz": [1.326572, -1.24499, -1.945804], "properties": {}}, {"name": "H", "species": [{"element": "H", "occu": 1}], "xyz": [2.980917, 0.881089, -0.330842], "properties": {}}, {"name": "H", "species": [{"element": "H", "occu": 1}], "xyz": [2.558064, -0.917726, -4.655], "properties": {}}, {"name": "H", "species": [{"element": "H", "occu": 1}], "xyz": [1.238115, 0.063658, -3.974091], "properties": {}}, {"name": "H", "species": [{"element": "H", "occu": 1}], "xyz": [4.012089, 1.133648, -4.785344], "properties": {}}, {"name": "H", "species": [{"element": "H", "occu": 1}], "xyz": [2.508023, 1.359055, -5.709278], "properties": {}}, {"name": "H", "species": [{"element": "H", "occu": 1}], "xyz": [2.692924, 2.112364, -4.108292], "properties": {}}]}, "smiles": "FC(F)CCOCC", "inchi": "InChI=1S/C5H10F2O/c1-2-8-4-3-5(6)7/h5H,2-4H2,1H3", "formula_alphabetical": "C5 F2 H10 O1", "chemsys": "C-F-H-O", "energy": -471.481085081, "esp": {"1": ["F", -0.268799], "2": ["F", -0.29263], "3": ["O", -0.453405], "4": ["C", -0.263379], "5": ["C", 0.19667], "6": ["C", 0.533371], "7": ["C", 0.377759], "8": ["C", -0.321325], "9": ["H", 0.101222], "10": ["H", 0.108019], "11": ["H", 0.025719], "12": ["H", 0.011516], "13": ["H", 0.038609], "14": ["H", -0.027428], "15": ["H", -0.024791], "16": ["H", 0.090518], "17": ["H", 0.074045], "18": ["H", 0.09431]}, "dipole_moment": {"X": 0.1226, "Y": -0.9878, "Z": -3.0294, "Tot": 3.1887}, "functional": "B3LYP", "basis": "6-31+G*", "phase": "gas", "tag": "lis", "state": "successful", "wall_time (s)": 6.673455168958753, "version": "0.0.1", "gauss_version": "ES64L-G16RevC.01", "last_updated": "2021-09-09 18:37:50.583000", "polarizability": 66.31, "fluorinated-solvent": "54238569", "run_ids": ["613a4ad2d098ab2169c7b396", "613a5476e20c8d5046c90e13"]}