{"_id": "61411b34f25e421c127897f0", "molecule": {"@module": "pymatgen.core.structure", "@class": "Molecule", "charge": 0, "spin_multiplicity": 1, "sites": [{"name": "F", "species": [{"element": "F", "occu": 1}], "xyz": [1.976871, -3.262574, -4.091694], "properties": {}}, {"name": "F", "species": [{"element": "F", "occu": 1}], "xyz": [0.086284, -2.143985, -3.905411], "properties": {}}, {"name": "F", "species": [{"element": "F", "occu": 1}], "xyz": [-0.249498, -1.587797, 4.549777], "properties": {}}, {"name": "F", "species": [{"element": "F", "occu": 1}], "xyz": [1.567433, -2.82132, 4.356087], "properties": {}}, {"name": "F", "species": [{"element": "F", "occu": 1}], "xyz": [1.603728, -1.345836, -6.024542], "properties": {}}, {"name": "F", "species": [{"element": "F", "occu": 1}], "xyz": [1.436615, 0.201743, -4.492533], "properties": {}}, {"name": "F", "species": [{"element": "F", "occu": 1}], "xyz": [3.298309, -0.919792, -4.715323], "properties": {}}, {"name": "F", "species": [{"element": "F", "occu": 1}], "xyz": [1.703845, -1.022837, 6.398784], "properties": {}}, {"name": "F", "species": [{"element": "F", "occu": 1}], "xyz": [3.120451, -0.570418, 4.799229], "properties": {}}, {"name": "F", "species": [{"element": "F", "occu": 1}], "xyz": [1.313572, 0.635356, 5.033097], "properties": {}}, {"name": "O", "species": [{"element": "O", "occu": 1}], "xyz": [1.478019, -2.721459, -1.393298], "properties": {}}, {"name": "O", "species": [{"element": "O", "occu": 1}], "xyz": [0.363158, -1.913844, 1.841625], "properties": {}}, {"name": "C", "species": [{"element": "C", "occu": 1}], "xyz": [0.049921, -3.683477, 0.265132], "properties": {}}, {"name": "C", "species": [{"element": "C", "occu": 1}], "xyz": [0.11024, -2.768439, -0.949988], "properties": {}}, {"name": "C", "species": [{"element": "C", "occu": 1}], "xyz": [0.886378, -3.191744, 1.43817], "properties": {}}, {"name": "C", "species": [{"element": "C", "occu": 1}], "xyz": [1.80445, -1.701666, -2.296613], "properties": {}}, {"name": "C", "species": [{"element": "C", "occu": 1}], "xyz": [1.175286, -1.148086, 2.688059], "properties": {}}, {"name": "C", "species": [{"element": "C", "occu": 1}], "xyz": [1.446172, -2.056526, -3.745359], "properties": {}}, {"name": "C", "species": [{"element": "C", "occu": 1}], "xyz": [1.055691, -1.563407, 4.159976], "properties": {}}, {"name": "C", "species": [{"element": "C", "occu": 1}], "xyz": [1.953356, -1.013973, -4.775047], "properties": {}}, {"name": "C", "species": [{"element": "C", "occu": 1}], "xyz": [1.810838, -0.615674, 5.127411], "properties": {}}, {"name": "H", "species": [{"element": "H", "occu": 1}], "xyz": [-0.997515, -3.776018, 0.578563], "properties": {}}, {"name": "H", "species": [{"element": "H", "occu": 1}], "xyz": [0.399915, -4.684799, -0.015545], "properties": {}}, {"name": "H", "species": [{"element": "H", "occu": 1}], "xyz": [-0.222633, -1.755362, -0.684059], "properties": {}}, {"name": "H", "species": [{"element": "H", "occu": 1}], "xyz": [-0.534029, -3.150885, -1.749849], "properties": {}}, {"name": "H", "species": [{"element": "H", "occu": 1}], "xyz": [0.833475, -3.902297, 2.270909], "properties": {}}, {"name": "H", "species": [{"element": "H", "occu": 1}], "xyz": [1.937742, -3.078374, 1.138816], "properties": {}}, {"name": "H", "species": [{"element": "H", "occu": 1}], "xyz": [2.888857, -1.563911, -2.248746], "properties": {}}, {"name": "H", "species": [{"element": "H", "occu": 1}], "xyz": [1.311698, -0.750334, -2.048032], "properties": {}}, {"name": "H", "species": [{"element": "H", "occu": 1}], "xyz": [2.237194, -1.199198, 2.406264], "properties": {}}, {"name": "H", "species": [{"element": "H", "occu": 1}], "xyz": [0.835388, -0.111116, 2.608424], "properties": {}}]}, "smiles": "FC(F)(COCCCOCC(F)(F)C(F)(F)F)C(F)(F)F", "inchi": "InChI=1S/C9H10F10O2/c10-6(11,8(14,15)16)4-20-2-1-3-21-5-7(12,13)9(17,18)19/h1-5H2", "formula_alphabetical": "C9 F10 H10 O2", "chemsys": "C-F-H-O", "energy": -1497.89769703, "esp": {"1": ["F", -0.139388], "2": ["F", -0.161677], "3": ["F", -0.141619], "4": ["F", -0.161865], "5": ["F", -0.145949], "6": ["F", -0.18479], "7": ["F", -0.176435], "8": ["F", -0.12596], "9": ["F", -0.16871], "10": ["F", -0.159546], "11": ["O", -0.297367], "12": ["O", -0.338158], "13": ["C", -0.345837], "14": ["C", 0.231514], "15": ["C", 0.317228], "16": ["C", -0.07333], "17": ["C", -0.016095], "18": ["C", 0.169737], "19": ["C", 0.185451], "20": ["C", 0.517777], "21": ["C", 0.442049], "22": ["H", 0.10775], "23": ["H", 0.104015], "24": ["H", 0.006998], "25": ["H", 0.058536], "26": ["H", 0.030079], "27": ["H", -0.015768], "28": ["H", 0.133444], "29": ["H", 0.120801], "30": ["H", 0.10627], "31": ["H", 0.120844]}, "dipole_moment": {"X": 0.3436, "Y": 0.5669, "Z": -0.0184, "Tot": 0.6632}, "functional": "B3LYP", "basis": "6-31+G*", "phase": "gas", "tag": "lis", "state": "successful", "wall_time (s)": 25.941707874066196, "version": "0.0.1", "gauss_version": "ES64L-G16RevC.01", "last_updated": "2021-09-14 21:59:16.542000", "polarizability": 122.94, "fluorinated-solvent": "101666374", "run_ids": ["61411af46bcaf8f88e0c8f7f", "61411b24b53b8bb7418c38e8"]}