{"_id": "614128921221fbdd462254fe", "molecule": {"@module": "pymatgen.core.structure", "@class": "Molecule", "charge": 0, "spin_multiplicity": 1, "sites": [{"name": "F", "species": [{"element": "F", "occu": 1}], "xyz": [3.019521, 0.045355, -1.25093], "properties": {}}, {"name": "F", "species": [{"element": "F", "occu": 1}], "xyz": [3.376829, -0.851328, 0.739232], "properties": {}}, {"name": "F", "species": [{"element": "F", "occu": 1}], "xyz": [0.712023, 2.787692, 3.776502], "properties": {}}, {"name": "F", "species": [{"element": "F", "occu": 1}], "xyz": [2.450227, 1.837876, 4.687783], "properties": {}}, {"name": "F", "species": [{"element": "F", "occu": 1}], "xyz": [2.372766, 4.014115, 4.496616], "properties": {}}, {"name": "O", "species": [{"element": "O", "occu": 1}], "xyz": [2.403076, 1.583672, 1.902503], "properties": {}}, {"name": "C", "species": [{"element": "C", "occu": 1}], "xyz": [2.592247, 0.067829, 0.070369], "properties": {}}, {"name": "C", "species": [{"element": "C", "occu": 1}], "xyz": [2.92388, 1.462152, 0.59124], "properties": {}}, {"name": "C", "species": [{"element": "C", "occu": 1}], "xyz": [2.73978, 2.798499, 2.523454], "properties": {}}, {"name": "C", "species": [{"element": "C", "occu": 1}], "xyz": [1.146432, -0.35573, 0.1486], "properties": {}}, {"name": "C", "species": [{"element": "C", "occu": 1}], "xyz": [2.057473, 2.844673, 3.881709], "properties": {}}, {"name": "H", "species": [{"element": "H", "occu": 1}], "xyz": [4.016883, 1.580692, 0.578164], "properties": {}}, {"name": "H", "species": [{"element": "H", "occu": 1}], "xyz": [2.473288, 2.206741, -0.081876], "properties": {}}, {"name": "H", "species": [{"element": "H", "occu": 1}], "xyz": [3.823411, 2.890245, 2.687667], "properties": {}}, {"name": "H", "species": [{"element": "H", "occu": 1}], "xyz": [2.389519, 3.66816, 1.947573], "properties": {}}, {"name": "H", "species": [{"element": "H", "occu": 1}], "xyz": [0.523689, 0.336094, -0.426105], "properties": {}}, {"name": "H", "species": [{"element": "H", "occu": 1}], "xyz": [1.048855, -1.36257, -0.266189], "properties": {}}, {"name": "H", "species": [{"element": "H", "occu": 1}], "xyz": [0.820973, -0.351237, 1.19132], "properties": {}}]}, "smiles": "FC(F)(COCC(F)(F)F)C", "inchi": "InChI=1S/C5H7F5O/c1-4(6,7)2-11-3-5(8,9)10/h2-3H2,1H3", "formula_alphabetical": "C5 F5 H7 O1", "chemsys": "C-F-H-O", "energy": -769.224374009, "esp": {"1": ["F", -0.29649], "2": ["F", -0.257676], "3": ["F", -0.20871], "4": ["F", -0.207644], "5": ["F", -0.240815], "6": ["O", -0.266472], "7": ["C", 0.577608], "8": ["C", -0.011656], "9": ["C", -0.220994], "10": ["C", -0.392126], "11": ["C", 0.681602], "12": ["H", 0.090087], "13": ["H", 0.081718], "14": ["H", 0.150126], "15": ["H", 0.138758], "16": ["H", 0.124825], "17": ["H", 0.145946], "18": ["H", 0.111912]}, "dipole_moment": {"X": -0.2212, "Y": 1.9032, "Z": -1.6249, "Tot": 2.5123}, "functional": "B3LYP", "basis": "6-31+G*", "phase": "gas", "tag": "lis", "state": "successful", "wall_time (s)": 8.699056267971173, "version": "0.0.1", "gauss_version": "ES64L-G16RevC.01", "last_updated": "2021-09-14 22:56:18.044000", "polarizability": 68.15, "fluorinated-solvent": "121480391", "run_ids": ["6141287cef952566cf85b42f", "6141288cc1614baebd5c620d"]}