{"_id": "613a4cc8dc2d7e2adcee06ac", "molecule": {"@module": "pymatgen.core.structure", "@class": "Molecule", "charge": 0, "spin_multiplicity": 1, "sites": [{"name": "F", "species": [{"element": "F", "occu": 1}], "xyz": [1.393316, 0.212261, 0.324498], "properties": {}}, {"name": "F", "species": [{"element": "F", "occu": 1}], "xyz": [3.260293, -0.155184, 1.466872], "properties": {}}, {"name": "O", "species": [{"element": "O", "occu": 1}], "xyz": [3.084714, -0.560945, -2.66158], "properties": {}}, {"name": "C", "species": [{"element": "C", "occu": 1}], "xyz": [2.875156, -1.464983, -0.466342], "properties": {}}, {"name": "C", "species": [{"element": "C", "occu": 1}], "xyz": [2.327066, -1.480383, -1.887896], "properties": {}}, {"name": "C", "species": [{"element": "C", "occu": 1}], "xyz": [2.732315, -0.110121, 0.191976], "properties": {}}, {"name": "C", "species": [{"element": "C", "occu": 1}], "xyz": [2.640253, -0.461394, -4.00417], "properties": {}}, {"name": "H", "species": [{"element": "H", "occu": 1}], "xyz": [3.938881, -1.727133, -0.476188], "properties": {}}, {"name": "H", "species": [{"element": "H", "occu": 1}], "xyz": [2.344728, -2.199429, 0.1508], "properties": {}}, {"name": "H", "species": [{"element": "H", "occu": 1}], "xyz": [2.409893, -2.495636, -2.309748], "properties": {}}, {"name": "H", "species": [{"element": "H", "occu": 1}], "xyz": [1.262223, -1.19745, -1.892635], "properties": {}}, {"name": "H", "species": [{"element": "H", "occu": 1}], "xyz": [3.215213, 0.70934, -0.344591], "properties": {}}, {"name": "H", "species": [{"element": "H", "occu": 1}], "xyz": [2.715659, -1.430444, -4.523146], "properties": {}}, {"name": "H", "species": [{"element": "H", "occu": 1}], "xyz": [1.597306, -0.110832, -4.055808], "properties": {}}, {"name": "H", "species": [{"element": "H", "occu": 1}], "xyz": [3.288594, 0.263701, -4.502292], "properties": {}}]}, "smiles": "FC(F)CCOC", "inchi": "InChI=1S/C4H8F2O/c1-7-3-2-4(5)6/h4H,2-3H2,1H3", "formula_alphabetical": "C4 F2 H8 O1", "chemsys": "C-F-H-O", "energy": -432.161035083, "esp": {"1": ["F", -0.280489], "2": ["F", -0.298669], "3": ["O", -0.36102], "4": ["C", -0.407959], "5": ["C", 0.228426], "6": ["C", 0.606811], "7": ["C", -0.046715], "8": ["H", 0.131322], "9": ["H", 0.143015], "10": ["H", 0.034392], "11": ["H", 0.023906], "12": ["H", 0.017264], "13": ["H", 0.054638], "14": ["H", 0.062242], "15": ["H", 0.092836]}, "dipole_moment": {"X": 0.0033, "Y": -1.4302, "Z": -2.8138, "Tot": 3.1564}, "functional": "B3LYP", "basis": "6-31+G*", "phase": "gas", "tag": "lis", "state": "successful", "wall_time (s)": 5.607377961976454, "version": "0.0.1", "gauss_version": "ES64L-G16RevC.01", "last_updated": "2021-09-09 18:04:56.395000", "polarizability": 54.41, "fluorinated-solvent": "54087846", "run_ids": ["613a49b0827ddf703def7272", "613a4b73e1ee46ebea590eb3"]}