{"_id": "614112f6d1899b4b248a27ab", "molecule": {"@module": "pymatgen.core.structure", "@class": "Molecule", "charge": 0, "spin_multiplicity": 1, "sites": [{"name": "F", "species": [{"element": "F", "occu": 1}], "xyz": [1.026803, -0.206251, 0.366372], "properties": {}}, {"name": "F", "species": [{"element": "F", "occu": 1}], "xyz": [3.001171, -1.141789, 0.261864], "properties": {}}, {"name": "F", "species": [{"element": "F", "occu": 1}], "xyz": [0.639583, -0.412884, -2.501179], "properties": {}}, {"name": "F", "species": [{"element": "F", "occu": 1}], "xyz": [4.208916, 1.359272, 0.609386], "properties": {}}, {"name": "F", "species": [{"element": "F", "occu": 1}], "xyz": [2.603603, 0.92485, -4.017311], "properties": {}}, {"name": "O", "species": [{"element": "O", "occu": 1}], "xyz": [2.428583, 0.356924, -1.32217], "properties": {}}, {"name": "C", "species": [{"element": "C", "occu": 1}], "xyz": [2.329084, 0.030107, 0.000314], "properties": {}}, {"name": "C", "species": [{"element": "C", "occu": 1}], "xyz": [1.993602, -0.589529, -2.270907], "properties": {}}, {"name": "C", "species": [{"element": "C", "occu": 1}], "xyz": [2.862027, 1.159309, 0.870601], "properties": {}}, {"name": "C", "species": [{"element": "C", "occu": 1}], "xyz": [2.766609, -0.375868, -3.557958], "properties": {}}, {"name": "H", "species": [{"element": "H", "occu": 1}], "xyz": [2.13412, -1.610589, -1.900464], "properties": {}}, {"name": "H", "species": [{"element": "H", "occu": 1}], "xyz": [2.31176, 2.075599, 0.641391], "properties": {}}, {"name": "H", "species": [{"element": "H", "occu": 1}], "xyz": [2.739193, 0.878249, 1.91999], "properties": {}}, {"name": "H", "species": [{"element": "H", "occu": 1}], "xyz": [3.832374, -0.550693, -3.376342], "properties": {}}, {"name": "H", "species": [{"element": "H", "occu": 1}], "xyz": [2.389161, -1.062658, -4.32266], "properties": {}}]}, "smiles": "FC(F)(O[C@@H](F)CF)CF", "inchi": "InChI=1S/C4H5F5O/c5-1-3(7)10-4(8,9)2-6/h3H,1-2H2/t3-/m1/s1", "formula_alphabetical": "C4 F5 H5 O1", "chemsys": "C-F-H-O", "energy": -729.893540428, "esp": {"1": ["F", -0.225264], "2": ["F", -0.211354], "3": ["F", -0.206143], "4": ["F", -0.210636], "5": ["F", -0.198641], "6": ["O", -0.271895], "7": ["C", 0.51521], "8": ["C", 0.259197], "9": ["C", -0.031067], "10": ["C", -0.020675], "11": ["H", 0.103293], "12": ["H", 0.133843], "13": ["H", 0.131487], "14": ["H", 0.111395], "15": ["H", 0.121249]}, "dipole_moment": {"X": 0.5654, "Y": -1.5305, "Z": 0.5267, "Tot": 1.7145}, "functional": "B3LYP", "basis": "6-31+G*", "phase": "gas", "tag": "lis", "state": "successful", "wall_time (s)": 6.815208901069127, "version": "0.0.1", "gauss_version": "ES64L-G16RevC.01", "last_updated": "2021-09-14 21:24:06.381000", "polarizability": 56.26, "fluorinated-solvent": "57536616", "run_ids": ["6141121f4c9150b2bae92114", "6141128d0cd83dd056166e98"]}