{"_id": "61412c01039bf698e535de08", "molecule": {"@module": "pymatgen.core.structure", "@class": "Molecule", "charge": 0, "spin_multiplicity": 1, "sites": [{"name": "F", "species": [{"element": "F", "occu": 1}], "xyz": [4.801709, 0.131019, 1.477032], "properties": {}}, {"name": "F", "species": [{"element": "F", "occu": 1}], "xyz": [4.941292, 0.823872, -0.617812], "properties": {}}, {"name": "F", "species": [{"element": "F", "occu": 1}], "xyz": [6.375428, 2.363014, 1.091864], "properties": {}}, {"name": "F", "species": [{"element": "F", "occu": 1}], "xyz": [4.617745, 3.457841, 0.30829], "properties": {}}, {"name": "F", "species": [{"element": "F", "occu": 1}], "xyz": [0.195769, 4.372175, 2.297776], "properties": {}}, {"name": "O", "species": [{"element": "O", "occu": 1}], "xyz": [2.362595, 1.561495, 1.716163], "properties": {}}, {"name": "C", "species": [{"element": "C", "occu": 1}], "xyz": [4.410789, 1.119674, 0.608723], "properties": {}}, {"name": "C", "species": [{"element": "C", "occu": 1}], "xyz": [2.895587, 1.139389, 0.480746], "properties": {}}, {"name": "C", "species": [{"element": "C", "occu": 1}], "xyz": [0.933713, 1.563934, 1.74732], "properties": {}}, {"name": "C", "species": [{"element": "C", "occu": 1}], "xyz": [0.490629, 2.133293, 3.088321], "properties": {}}, {"name": "C", "species": [{"element": "C", "occu": 1}], "xyz": [5.01578, 2.435158, 1.128336], "properties": {}}, {"name": "C", "species": [{"element": "C", "occu": 1}], "xyz": [0.865431, 3.595011, 3.266724], "properties": {}}, {"name": "H", "species": [{"element": "H", "occu": 1}], "xyz": [2.623414, 1.825048, -0.33416], "properties": {}}, {"name": "H", "species": [{"element": "H", "occu": 1}], "xyz": [2.572141, 0.120836, 0.217758], "properties": {}}, {"name": "H", "species": [{"element": "H", "occu": 1}], "xyz": [0.542721, 2.17726, 0.92197], "properties": {}}, {"name": "H", "species": [{"element": "H", "occu": 1}], "xyz": [0.561672, 0.535245, 1.622615], "properties": {}}, {"name": "H", "species": [{"element": "H", "occu": 1}], "xyz": [-0.597583, 2.026977, 3.177716], "properties": {}}, {"name": "H", "species": [{"element": "H", "occu": 1}], "xyz": [0.949382, 1.550524, 3.898091], "properties": {}}, {"name": "H", "species": [{"element": "H", "occu": 1}], "xyz": [4.691194, 2.648517, 2.148704], "properties": {}}, {"name": "H", "species": [{"element": "H", "occu": 1}], "xyz": [0.560823, 3.972671, 4.248537], "properties": {}}, {"name": "H", "species": [{"element": "H", "occu": 1}], "xyz": [1.937694, 3.759195, 3.122185], "properties": {}}]}, "smiles": "FC(F)(COCCCF)C(F)F", "inchi": "InChI=1S/C6H9F5O/c7-2-1-3-12-4-6(10,11)5(8)9/h5H,1-4H2", "formula_alphabetical": "C6 F5 H9 O1", "chemsys": "C-F-H-O", "energy": -808.514429218, "esp": {"1": ["F", -0.207819], "2": ["F", -0.1943], "3": ["F", -0.217886], "4": ["F", -0.21086], "5": ["F", -0.300898], "6": ["O", -0.322214], "7": ["C", 0.350433], "8": ["C", -0.170247], "9": ["C", 0.204713], "10": ["C", -0.131498], "11": ["C", 0.383014], "12": ["C", 0.238383], "13": ["H", 0.126476], "14": ["H", 0.149923], "15": ["H", 0.033397], "16": ["H", 0.018138], "17": ["H", 0.064958], "18": ["H", 0.044722], "19": ["H", 0.078302], "20": ["H", 0.033209], "21": ["H", 0.03005]}, "dipole_moment": {"X": -3.0235, "Y": -1.1942, "Z": 1.9475, "Tot": 3.7895}, "functional": "B3LYP", "basis": "6-31+G*", "phase": "gas", "tag": "lis", "state": "successful", "wall_time (s)": 12.482236557989381, "version": "0.0.1", "gauss_version": "ES64L-G16RevC.01", "last_updated": "2021-09-14 23:10:56.976000", "polarizability": 79.16, "fluorinated-solvent": "88850826", "run_ids": ["61412bdf28bbbcfa02eb00f7", "61412bfb35908ce0a6aae2f1"]}