{"_id": "613a533ee8d58a4b92452a9a", "molecule": {"@module": "pymatgen.core.structure", "@class": "Molecule", "charge": 0, "spin_multiplicity": 1, "sites": [{"name": "F", "species": [{"element": "F", "occu": 1}], "xyz": [1.379999, -0.628333, 0.551752], "properties": {}}, {"name": "F", "species": [{"element": "F", "occu": 1}], "xyz": [3.521876, -1.07082, 0.5728], "properties": {}}, {"name": "F", "species": [{"element": "F", "occu": 1}], "xyz": [2.81942, 0.727337, 2.52177], "properties": {}}, {"name": "O", "species": [{"element": "O", "occu": 1}], "xyz": [2.721322, 0.354631, -0.997009], "properties": {}}, {"name": "C", "species": [{"element": "C", "occu": 1}], "xyz": [2.253626, -0.454998, -2.134143], "properties": {}}, {"name": "C", "species": [{"element": "C", "occu": 1}], "xyz": [2.614881, -0.07043, 0.279475], "properties": {}}, {"name": "C", "species": [{"element": "C", "occu": 1}], "xyz": [2.625482, -1.930974, -2.02774], "properties": {}}, {"name": "C", "species": [{"element": "C", "occu": 1}], "xyz": [0.76363, -0.215896, -2.36523], "properties": {}}, {"name": "C", "species": [{"element": "C", "occu": 1}], "xyz": [2.859056, 1.126539, 1.193242], "properties": {}}, {"name": "H", "species": [{"element": "H", "occu": 1}], "xyz": [2.820533, -0.001923, -2.953029], "properties": {}}, {"name": "H", "species": [{"element": "H", "occu": 1}], "xyz": [2.077048, -2.428402, -1.222833], "properties": {}}, {"name": "H", "species": [{"element": "H", "occu": 1}], "xyz": [2.366542, -2.421489, -2.973373], "properties": {}}, {"name": "H", "species": [{"element": "H", "occu": 1}], "xyz": [3.696709, -2.058774, -1.850883], "properties": {}}, {"name": "H", "species": [{"element": "H", "occu": 1}], "xyz": [0.546748, 0.857221, -2.384707], "properties": {}}, {"name": "H", "species": [{"element": "H", "occu": 1}], "xyz": [0.472691, -0.643628, -3.332132], "properties": {}}, {"name": "H", "species": [{"element": "H", "occu": 1}], "xyz": [0.159312, -0.682625, -1.582669], "properties": {}}, {"name": "H", "species": [{"element": "H", "occu": 1}], "xyz": [3.845586, 1.544934, 0.976956], "properties": {}}, {"name": "H", "species": [{"element": "H", "occu": 1}], "xyz": [2.075247, 1.869527, 1.023532], "properties": {}}]}, "smiles": "FC(F)(OC(C)C)CF", "inchi": "InChI=1S/C5H9F3O/c1-4(2)9-5(7,8)3-6/h4H,3H2,1-2H3", "formula_alphabetical": "C5 F3 H9 O1", "chemsys": "C-F-H-O", "energy": -570.729885776, "esp": {"1": ["F", -0.254455], "2": ["F", -0.251091], "3": ["F", -0.247973], "4": ["O", -0.598701], "5": ["C", 0.665096], "6": ["C", 0.663234], "7": ["C", -0.52297], "8": ["C", -0.515376], "9": ["C", 0.057185], "10": ["H", -0.00683], "11": ["H", 0.15523], "12": ["H", 0.114368], "13": ["H", 0.143735], "14": ["H", 0.13035], "15": ["H", 0.111527], "16": ["H", 0.154111], "17": ["H", 0.103421], "18": ["H", 0.099138]}, "dipole_moment": {"X": -0.3593, "Y": 0.9677, "Z": -3.3341, "Tot": 3.4902}, "functional": "B3LYP", "basis": "6-31+G*", "phase": "gas", "tag": "lis", "state": "successful", "wall_time (s)": 7.373254512087442, "version": "0.0.1", "gauss_version": "ES64L-G16RevC.01", "last_updated": "2021-09-09 18:32:30.077000", "polarizability": 66.05, "fluorinated-solvent": "11159370", "run_ids": ["613a4abf2a3c771b8d5c3140", "613a5336f11739bd308d54a9"]}