{"_id": "613a5367a5312d4e9576e356", "molecule": {"@module": "pymatgen.core.structure", "@class": "Molecule", "charge": 0, "spin_multiplicity": 1, "sites": [{"name": "F", "species": [{"element": "F", "occu": 1}], "xyz": [2.856358, 1.194877, -0.29123], "properties": {}}, {"name": "F", "species": [{"element": "F", "occu": 1}], "xyz": [3.121112, -0.933623, -0.837267], "properties": {}}, {"name": "F", "species": [{"element": "F", "occu": 1}], "xyz": [0.197296, 0.601823, 0.463472], "properties": {}}, {"name": "O", "species": [{"element": "O", "occu": 1}], "xyz": [2.298682, -1.646105, 1.779351], "properties": {}}, {"name": "C", "species": [{"element": "C", "occu": 1}], "xyz": [2.427948, -0.083296, -0.001621], "properties": {}}, {"name": "C", "species": [{"element": "C", "occu": 1}], "xyz": [2.783678, -0.364336, 1.449009], "properties": {}}, {"name": "C", "species": [{"element": "C", "occu": 1}], "xyz": [0.957483, -0.226213, -0.364515], "properties": {}}, {"name": "C", "species": [{"element": "C", "occu": 1}], "xyz": [2.560838, -2.008141, 3.127119], "properties": {}}, {"name": "H", "species": [{"element": "H", "occu": 1}], "xyz": [3.87834, -0.301013, 1.548212], "properties": {}}, {"name": "H", "species": [{"element": "H", "occu": 1}], "xyz": [2.321559, 0.41647, 2.071062], "properties": {}}, {"name": "H", "species": [{"element": "H", "occu": 1}], "xyz": [0.808444, 0.083119, -1.402857], "properties": {}}, {"name": "H", "species": [{"element": "H", "occu": 1}], "xyz": [0.643907, -1.260493, -0.20763], "properties": {}}, {"name": "H", "species": [{"element": "H", "occu": 1}], "xyz": [3.642848, -2.03395, 3.328679], "properties": {}}, {"name": "H", "species": [{"element": "H", "occu": 1}], "xyz": [2.08098, -1.307731, 3.828013], "properties": {}}, {"name": "H", "species": [{"element": "H", "occu": 1}], "xyz": [2.143227, -3.007071, 3.271327], "properties": {}}]}, "smiles": "FC(F)(COC)CF", "inchi": "InChI=1S/C4H7F3O/c1-8-3-4(6,7)2-5/h2-3H2,1H3", "formula_alphabetical": "C4 F3 H7 O1", "chemsys": "C-F-H-O", "energy": -531.39722776, "esp": {"1": ["F", -0.233432], "2": ["F", -0.235601], "3": ["F", -0.243714], "4": ["O", -0.277657], "5": ["C", 0.371963], "6": ["C", -0.028826], "7": ["C", 0.109146], "8": ["C", -0.105279], "9": ["H", 0.114508], "10": ["H", 0.095171], "11": ["H", 0.100812], "12": ["H", 0.06594], "13": ["H", 0.07465], "14": ["H", 0.084388], "15": ["H", 0.107931]}, "dipole_moment": {"X": 0.1904, "Y": -1.1761, "Z": 1.8054, "Tot": 2.163}, "functional": "B3LYP", "basis": "6-31+G*", "phase": "gas", "tag": "lis", "state": "successful", "wall_time (s)": 6.7558814770309255, "version": "0.0.1", "gauss_version": "ES64L-G16RevC.01", "last_updated": "2021-09-09 18:33:10.782000", "polarizability": 54.78, "fluorinated-solvent": "53833220", "run_ids": ["613a4ac0b99056f398d8d17d", "613a5358bd475ae363ce2276"]}