{"_id": "613a4d377588bde340aea154", "molecule": {"@module": "pymatgen.core.structure", "@class": "Molecule", "charge": 0, "spin_multiplicity": 1, "sites": [{"name": "F", "species": [{"element": "F", "occu": 1}], "xyz": [3.306036, -0.714267, 3.490107], "properties": {}}, {"name": "F", "species": [{"element": "F", "occu": 1}], "xyz": [1.477095, -1.126325, 2.372488], "properties": {}}, {"name": "F", "species": [{"element": "F", "occu": 1}], "xyz": [3.314884, -3.155547, 2.39313], "properties": {}}, {"name": "F", "species": [{"element": "F", "occu": 1}], "xyz": [2.8271, -2.368318, 0.393547], "properties": {}}, {"name": "F", "species": [{"element": "F", "occu": 1}], "xyz": [5.451089, -3.168378, 0.819901], "properties": {}}, {"name": "F", "species": [{"element": "F", "occu": 1}], "xyz": [5.208224, -1.07817, 0.260345], "properties": {}}, {"name": "F", "species": [{"element": "F", "occu": 1}], "xyz": [5.682267, -1.60578, 2.325264], "properties": {}}, {"name": "O", "species": [{"element": "O", "occu": 1}], "xyz": [3.033986, 0.227573, 1.457384], "properties": {}}, {"name": "O", "species": [{"element": "O", "occu": 1}], "xyz": [2.671692, 4.277885, 2.585618], "properties": {}}, {"name": "C", "species": [{"element": "C", "occu": 1}], "xyz": [2.813863, -0.85169, 2.216689], "properties": {}}, {"name": "C", "species": [{"element": "C", "occu": 1}], "xyz": [3.471325, -2.10011, 1.556933], "properties": {}}, {"name": "C", "species": [{"element": "C", "occu": 1}], "xyz": [2.441485, 1.484671, 1.906118], "properties": {}}, {"name": "C", "species": [{"element": "C", "occu": 1}], "xyz": [2.928304, 2.557835, 0.946584], "properties": {}}, {"name": "C", "species": [{"element": "C", "occu": 1}], "xyz": [2.309677, 3.914267, 1.262076], "properties": {}}, {"name": "C", "species": [{"element": "C", "occu": 1}], "xyz": [4.991505, -1.974494, 1.233742], "properties": {}}, {"name": "C", "species": [{"element": "C", "occu": 1}], "xyz": [2.162632, 5.540995, 2.97876], "properties": {}}, {"name": "H", "species": [{"element": "H", "occu": 1}], "xyz": [1.35151, 1.380774, 1.878706], "properties": {}}, {"name": "H", "species": [{"element": "H", "occu": 1}], "xyz": [2.764309, 1.68644, 2.929535], "properties": {}}, {"name": "H", "species": [{"element": "H", "occu": 1}], "xyz": [4.020294, 2.628883, 1.00498], "properties": {}}, {"name": "H", "species": [{"element": "H", "occu": 1}], "xyz": [2.666635, 2.273839, -0.080168], "properties": {}}, {"name": "H", "species": [{"element": "H", "occu": 1}], "xyz": [2.672715, 4.668165, 0.543955], "properties": {}}, {"name": "H", "species": [{"element": "H", "occu": 1}], "xyz": [1.209409, 3.871135, 1.170437], "properties": {}}, {"name": "H", "species": [{"element": "H", "occu": 1}], "xyz": [2.542646, 6.345496, 2.328853], "properties": {}}, {"name": "H", "species": [{"element": "H", "occu": 1}], "xyz": [1.061122, 5.555179, 2.953441], "properties": {}}, {"name": "H", "species": [{"element": "H", "occu": 1}], "xyz": [2.500612, 5.716972, 4.002925], "properties": {}}]}, "smiles": "FC(F)(OCCCOC)C(F)(F)C(F)(F)F", "inchi": "InChI=1S/C7H9F7O2/c1-15-3-2-4-16-7(13,14)5(8,9)6(10,11)12/h2-4H2,1H3", "formula_alphabetical": "C7 F7 H9 O2", "chemsys": "C-F-H-O", "energy": -1121.53883655, "esp": {"1": ["F", -0.193088], "2": ["F", -0.187203], "3": ["F", -0.13895], "4": ["F", -0.137238], "5": ["F", -0.169883], "6": ["F", -0.178728], "7": ["F", -0.169427], "8": ["O", -0.376565], "9": ["O", -0.330926], "10": ["C", 0.459405], "11": ["C", 0.184456], "12": ["C", 0.28212], "13": ["C", -0.216914], "14": ["C", 0.133435], "15": ["C", 0.553659], "16": ["C", -0.131284], "17": ["H", 0.048426], "18": ["H", 0.028484], "19": ["H", 0.106049], "20": ["H", 0.07763], "21": ["H", 0.052295], "22": ["H", 0.026146], "23": ["H", 0.082586], "24": ["H", 0.077787], "25": ["H", 0.117729]}, "dipole_moment": {"X": -1.4141, "Y": 4.4442, "Z": -0.7851, "Tot": 4.7294}, "functional": "B3LYP", "basis": "6-31+G*", "phase": "gas", "tag": "lis", "state": "successful", "wall_time (s)": 15.85828100994695, "version": "0.0.1", "gauss_version": "ES64L-G16RevC.01", "last_updated": "2021-09-09 18:06:47.008000", "polarizability": 98.41, "fluorinated-solvent": "53809137", "run_ids": ["613a49e8c1b06ff2cee5942d", "613a4b93b0186761584906fe"]}