{"_id": "61411494cc4c1e2c769e10f2", "molecule": {"@module": "pymatgen.core.structure", "@class": "Molecule", "charge": 0, "spin_multiplicity": 1, "sites": [{"name": "F", "species": [{"element": "F", "occu": 1}], "xyz": [0.722373, 0.077964, 0.709613], "properties": {}}, {"name": "F", "species": [{"element": "F", "occu": 1}], "xyz": [1.886483, -0.250838, -1.109652], "properties": {}}, {"name": "F", "species": [{"element": "F", "occu": 1}], "xyz": [4.057359, -1.088337, 0.431173], "properties": {}}, {"name": "F", "species": [{"element": "F", "occu": 1}], "xyz": [2.909686, -0.741082, 2.253275], "properties": {}}, {"name": "F", "species": [{"element": "F", "occu": 1}], "xyz": [3.032015, 2.241939, -1.558167], "properties": {}}, {"name": "F", "species": [{"element": "F", "occu": 1}], "xyz": [1.057191, 2.474851, -0.642798], "properties": {}}, {"name": "F", "species": [{"element": "F", "occu": 1}], "xyz": [2.23381, 3.79142, 1.530122], "properties": {}}, {"name": "F", "species": [{"element": "F", "occu": 1}], "xyz": [3.606802, -3.954713, 0.343971], "properties": {}}, {"name": "O", "species": [{"element": "O", "occu": 1}], "xyz": [2.630553, 1.242491, 0.42723], "properties": {}}, {"name": "O", "species": [{"element": "O", "occu": 1}], "xyz": [2.144774, -2.246209, 0.762217], "properties": {}}, {"name": "C", "species": [{"element": "C", "occu": 1}], "xyz": [1.978069, 0.049067, 0.205636], "properties": {}}, {"name": "C", "species": [{"element": "C", "occu": 1}], "xyz": [2.792745, -1.063494, 0.929807], "properties": {}}, {"name": "C", "species": [{"element": "C", "occu": 1}], "xyz": [2.379633, 2.356114, -0.362725], "properties": {}}, {"name": "C", "species": [{"element": "C", "occu": 1}], "xyz": [2.912393, 3.598338, 0.339202], "properties": {}}, {"name": "C", "species": [{"element": "C", "occu": 1}], "xyz": [2.763281, -3.404454, 1.285998], "properties": {}}, {"name": "H", "species": [{"element": "H", "occu": 1}], "xyz": [3.977125, 3.463145, 0.547227], "properties": {}}, {"name": "H", "species": [{"element": "H", "occu": 1}], "xyz": [2.746231, 4.459207, -0.314247], "properties": {}}, {"name": "H", "species": [{"element": "H", "occu": 1}], "xyz": [3.349526, -3.173434, 2.178831], "properties": {}}, {"name": "H", "species": [{"element": "H", "occu": 1}], "xyz": [1.955532, -4.110133, 1.479767], "properties": {}}]}, "smiles": "FC(F)(OC(F)(F)CF)C(F)(F)OCF", "inchi": "InChI=1S/C5H4F8O2/c6-1-3(8,9)15-5(12,13)4(10,11)14-2-7/h1-2H2", "formula_alphabetical": "C5 F8 H4 O2", "chemsys": "C-F-H-O", "energy": -1142.16401692, "esp": {"1": ["F", -0.130123], "2": ["F", -0.098485], "3": ["F", -0.14788], "4": ["F", -0.17673], "5": ["F", -0.202072], "6": ["F", -0.140661], "7": ["F", -0.206668], "8": ["F", -0.223418], "9": ["O", -0.24548], "10": ["O", -0.295778], "11": ["C", 0.283348], "12": ["C", 0.43965], "13": ["C", 0.436984], "14": ["C", 0.027577], "15": ["C", 0.232513], "16": ["H", 0.119309], "17": ["H", 0.119578], "18": ["H", 0.098176], "19": ["H", 0.110161]}, "dipole_moment": {"X": 0.9176, "Y": 0.1598, "Z": 1.2045, "Tot": 1.5226}, "functional": "B3LYP", "basis": "6-31+G*", "phase": "gas", "tag": "lis", "state": "successful", "wall_time (s)": 12.769227879005484, "version": "0.0.1", "gauss_version": "ES64L-G16RevC.01", "last_updated": "2021-09-14 21:31:00.173000", "polarizability": 74.92, "fluorinated-solvent": "117619978", "run_ids": ["614114350e9b4626931f413a", "614114769c2a14b03f62f63f"]}