{"_id": "614125e33c05302f6a1500d8", "molecule": {"@module": "pymatgen.core.structure", "@class": "Molecule", "charge": 0, "spin_multiplicity": 1, "sites": [{"name": "F", "species": [{"element": "F", "occu": 1}], "xyz": [0.525107, 0.013801, 0.150276], "properties": {}}, {"name": "F", "species": [{"element": "F", "occu": 1}], "xyz": [0.402845, 2.182808, -0.031429], "properties": {}}, {"name": "F", "species": [{"element": "F", "occu": 1}], "xyz": [-1.180699, 1.08464, 1.002475], "properties": {}}, {"name": "F", "species": [{"element": "F", "occu": 1}], "xyz": [7.025842, 2.230135, 3.477574], "properties": {}}, {"name": "O", "species": [{"element": "O", "occu": 1}], "xyz": [2.271988, 1.235606, 2.045306], "properties": {}}, {"name": "O", "species": [{"element": "O", "occu": 1}], "xyz": [5.053462, 3.453208, 1.516217], "properties": {}}, {"name": "C", "species": [{"element": "C", "occu": 1}], "xyz": [2.922209, 2.452618, 1.664975], "properties": {}}, {"name": "C", "species": [{"element": "C", "occu": 1}], "xyz": [4.409907, 2.239887, 1.89889], "properties": {}}, {"name": "C", "species": [{"element": "C", "occu": 1}], "xyz": [0.875366, 1.285969, 2.145871], "properties": {}}, {"name": "C", "species": [{"element": "C", "occu": 1}], "xyz": [6.46734, 3.397157, 1.445328], "properties": {}}, {"name": "C", "species": [{"element": "C", "occu": 1}], "xyz": [0.162008, 1.137947, 0.802007], "properties": {}}, {"name": "C", "species": [{"element": "C", "occu": 1}], "xyz": [7.159185, 3.456235, 2.794904], "properties": {}}, {"name": "H", "species": [{"element": "H", "occu": 1}], "xyz": [2.73485, 2.691479, 0.611833], "properties": {}}, {"name": "H", "species": [{"element": "H", "occu": 1}], "xyz": [2.558718, 3.28808, 2.282092], "properties": {}}, {"name": "H", "species": [{"element": "H", "occu": 1}], "xyz": [4.600576, 1.997506, 2.951295], "properties": {}}, {"name": "H", "species": [{"element": "H", "occu": 1}], "xyz": [4.769077, 1.400466, 1.284271], "properties": {}}, {"name": "H", "species": [{"element": "H", "occu": 1}], "xyz": [0.518552, 2.219402, 2.606006], "properties": {}}, {"name": "H", "species": [{"element": "H", "occu": 1}], "xyz": [0.561472, 0.440689, 2.765003], "properties": {}}, {"name": "H", "species": [{"element": "H", "occu": 1}], "xyz": [6.797992, 2.496968, 0.902424], "properties": {}}, {"name": "H", "species": [{"element": "H", "occu": 1}], "xyz": [6.772232, 4.278751, 0.868137], "properties": {}}, {"name": "H", "species": [{"element": "H", "occu": 1}], "xyz": [8.233037, 3.640932, 2.669612], "properties": {}}, {"name": "H", "species": [{"element": "H", "occu": 1}], "xyz": [6.715297, 4.231408, 3.428722], "properties": {}}]}, "smiles": "FC(F)(F)COCCOCCF", "inchi": "InChI=1S/C6H10F4O2/c7-1-2-11-3-4-12-5-6(8,9)10/h1-5H2", "formula_alphabetical": "C6 F4 H10 O2", "chemsys": "C-F-H-O", "energy": -784.486559925, "esp": {"1": ["F", -0.183005], "2": ["F", -0.200807], "3": ["F", -0.240948], "4": ["F", -0.288024], "5": ["O", -0.462713], "6": ["O", -0.526347], "7": ["C", 0.206651], "8": ["C", 0.322766], "9": ["C", -0.025693], "10": ["C", 0.124547], "11": ["C", 0.583813], "12": ["C", 0.137437], "13": ["H", 0.02801], "14": ["H", 0.03005], "15": ["H", 0.021823], "16": ["H", 0.005519], "17": ["H", 0.093267], "18": ["H", 0.131311], "19": ["H", 0.057579], "20": ["H", 0.060783], "21": ["H", 0.039313], "22": ["H", 0.084667]}, "dipole_moment": {"X": 1.7129, "Y": 1.9914, "Z": 0.8866, "Tot": 2.7723}, "functional": "B3LYP", "basis": "6-31+G*", "phase": "gas", "tag": "lis", "state": "successful", "wall_time (s)": 9.95020379300695, "version": "0.0.1", "gauss_version": "ES64L-G16RevC.01", "last_updated": "2021-09-14 22:44:51.673000", "polarizability": 84.11, "fluorinated-solvent": "88485365", "run_ids": ["614125cc34dd37208948d8fe", "614125de45b43212f8bee2eb"]}