{"_id": "61410c37c2a04e9e952f5908", "molecule": {"@module": "pymatgen.core.structure", "@class": "Molecule", "charge": 0, "spin_multiplicity": 1, "sites": [{"name": "F", "species": [{"element": "F", "occu": 1}], "xyz": [2.862967, -1.381114, -0.453526], "properties": {}}, {"name": "F", "species": [{"element": "F", "occu": 1}], "xyz": [3.31041, -0.123998, 1.31571], "properties": {}}, {"name": "F", "species": [{"element": "F", "occu": 1}], "xyz": [0.808951, 2.847031, -1.712049], "properties": {}}, {"name": "F", "species": [{"element": "F", "occu": 1}], "xyz": [-0.075251, 1.481503, -0.248277], "properties": {}}, {"name": "O", "species": [{"element": "O", "occu": 1}], "xyz": [2.081484, 2.105571, -0.004177], "properties": {}}, {"name": "C", "species": [{"element": "C", "occu": 1}], "xyz": [2.617183, 0.953793, -0.702213], "properties": {}}, {"name": "C", "species": [{"element": "C", "occu": 1}], "xyz": [2.477581, -0.248217, 0.231092], "properties": {}}, {"name": "C", "species": [{"element": "C", "occu": 1}], "xyz": [4.056725, 1.255466, -1.084085], "properties": {}}, {"name": "C", "species": [{"element": "C", "occu": 1}], "xyz": [0.839338, 2.526412, -0.362184], "properties": {}}, {"name": "C", "species": [{"element": "C", "occu": 1}], "xyz": [0.397461, 3.7025, 0.468205], "properties": {}}, {"name": "H", "species": [{"element": "H", "occu": 1}], "xyz": [2.011962, 0.745795, -1.589403], "properties": {}}, {"name": "H", "species": [{"element": "H", "occu": 1}], "xyz": [1.459785, -0.395109, 0.599412], "properties": {}}, {"name": "H", "species": [{"element": "H", "occu": 1}], "xyz": [4.512524, 0.379621, -1.556246], "properties": {}}, {"name": "H", "species": [{"element": "H", "occu": 1}], "xyz": [4.07889, 2.091996, -1.7882], "properties": {}}, {"name": "H", "species": [{"element": "H", "occu": 1}], "xyz": [4.637427, 1.521119, -0.196512], "properties": {}}, {"name": "H", "species": [{"element": "H", "occu": 1}], "xyz": [0.378132, 3.414595, 1.52175], "properties": {}}, {"name": "H", "species": [{"element": "H", "occu": 1}], "xyz": [1.100186, 4.527009, 0.328022], "properties": {}}, {"name": "H", "species": [{"element": "H", "occu": 1}], "xyz": [-0.601043, 4.009524, 0.149501], "properties": {}}]}, "smiles": "FC(F)[C@@H](OC(F)(F)C)C", "inchi": "InChI=1S/C5H8F4O/c1-3(4(6)7)10-5(2,8)9/h3-4H,1-2H3/t3-/m0/s1", "formula_alphabetical": "C5 F4 H8 O1", "chemsys": "C-F-H-O", "energy": -669.992375866, "esp": {"1": ["F", -0.249211], "2": ["F", -0.225126], "3": ["F", -0.273886], "4": ["F", -0.305323], "5": ["O", -0.494494], "6": ["C", 0.36574], "7": ["C", 0.307932], "8": ["C", -0.315744], "9": ["C", 0.785474], "10": ["C", -0.509599], "11": ["H", 0.021391], "12": ["H", 0.098106], "13": ["H", 0.095809], "14": ["H", 0.098961], "15": ["H", 0.115658], "16": ["H", 0.161844], "17": ["H", 0.163829], "18": ["H", 0.158637]}, "dipole_moment": {"X": -0.4251, "Y": 1.8896, "Z": -0.0006, "Tot": 1.9368}, "functional": "B3LYP", "basis": "6-31+G*", "phase": "gas", "tag": "lis", "state": "successful", "wall_time (s)": 8.102213443024084, "version": "0.0.1", "gauss_version": "ES64L-G16RevC.01", "last_updated": "2021-09-14 20:55:19.431000", "polarizability": 66.67, "fluorinated-solvent": "88885550", "run_ids": ["61410b717efbf426e40b7dd5", "61410c02a0a935e21e0077d3"]}