{"_id": "61410ea1e36bc7c804a4f75a", "molecule": {"@module": "pymatgen.core.structure", "@class": "Molecule", "charge": 0, "spin_multiplicity": 1, "sites": [{"name": "F", "species": [{"element": "F", "occu": 1}], "xyz": [5.072208, -1.718928, -1.764659], "properties": {}}, {"name": "F", "species": [{"element": "F", "occu": 1}], "xyz": [4.756178, -0.832591, 0.204902], "properties": {}}, {"name": "F", "species": [{"element": "F", "occu": 1}], "xyz": [4.80271, 0.435972, -1.571743], "properties": {}}, {"name": "F", "species": [{"element": "F", "occu": 1}], "xyz": [0.337132, -4.779272, -2.622951], "properties": {}}, {"name": "F", "species": [{"element": "F", "occu": 1}], "xyz": [1.954793, -5.274964, -1.247893], "properties": {}}, {"name": "F", "species": [{"element": "F", "occu": 1}], "xyz": [-0.097113, -5.86799, -0.776636], "properties": {}}, {"name": "O", "species": [{"element": "O", "occu": 1}], "xyz": [1.070104, -2.470037, -1.121279], "properties": {}}, {"name": "C", "species": [{"element": "C", "occu": 1}], "xyz": [2.872627, -0.928872, -1.267752], "properties": {}}, {"name": "C", "species": [{"element": "C", "occu": 1}], "xyz": [2.443785, -2.308128, -0.75326], "properties": {}}, {"name": "C", "species": [{"element": "C", "occu": 1}], "xyz": [4.374845, -0.760641, -1.099681], "properties": {}}, {"name": "C", "species": [{"element": "C", "occu": 1}], "xyz": [2.106545, 0.213421, -0.587643], "properties": {}}, {"name": "C", "species": [{"element": "C", "occu": 1}], "xyz": [0.408501, -3.573298, -0.560215], "properties": {}}, {"name": "C", "species": [{"element": "C", "occu": 1}], "xyz": [0.658035, -4.877823, -1.316691], "properties": {}}, {"name": "H", "species": [{"element": "H", "occu": 1}], "xyz": [2.693099, -0.9039, -2.349463], "properties": {}}, {"name": "H", "species": [{"element": "H", "occu": 1}], "xyz": [3.057477, -3.098787, -1.196837], "properties": {}}, {"name": "H", "species": [{"element": "H", "occu": 1}], "xyz": [2.545033, -2.356887, 0.341551], "properties": {}}, {"name": "H", "species": [{"element": "H", "occu": 1}], "xyz": [2.394329, 1.183644, -1.00238], "properties": {}}, {"name": "H", "species": [{"element": "H", "occu": 1}], "xyz": [1.034546, 0.070402, -0.744024], "properties": {}}, {"name": "H", "species": [{"element": "H", "occu": 1}], "xyz": [2.301877, 0.225628, 0.490636], "properties": {}}, {"name": "H", "species": [{"element": "H", "occu": 1}], "xyz": [0.685883, -3.741414, 0.490573], "properties": {}}, {"name": "H", "species": [{"element": "H", "occu": 1}], "xyz": [-0.664951, -3.372564, -0.618035], "properties": {}}]}, "smiles": "FC(F)(F)[C@@H](COCC(F)(F)F)C", "inchi": "InChI=1S/C6H8F6O/c1-4(6(10,11)12)2-13-3-5(7,8)9/h4H,2-3H2,1H3/t4-/m1/s1", "formula_alphabetical": "C6 F6 H8 O1", "chemsys": "C-F-H-O", "energy": -907.789372733, "esp": {"1": ["F", -0.209605], "2": ["F", -0.21898], "3": ["F", -0.195968], "4": ["F", -0.184275], "5": ["F", -0.188604], "6": ["F", -0.221321], "7": ["O", -0.337696], "8": ["C", 0.036076], "9": ["C", 0.186162], "10": ["C", 0.518555], "11": ["C", -0.237243], "12": ["C", -0.131464], "13": ["C", 0.568214], "14": ["H", 0.058587], "15": ["H", 0.018424], "16": ["H", 0.040151], "17": ["H", 0.075358], "18": ["H", 0.079824], "19": ["H", 0.077333], "20": ["H", 0.115236], "21": ["H", 0.151238]}, "dipole_moment": {"X": -2.0517, "Y": 1.052, "Z": 1.5599, "Tot": 2.7838}, "functional": "B3LYP", "basis": "6-31+G*", "phase": "gas", "tag": "lis", "state": "successful", "wall_time (s)": 11.222065405920148, "version": "0.0.1", "gauss_version": "ES64L-G16RevC.01", "last_updated": "2021-09-14 21:05:36.824000", "polarizability": 79.8, "fluorinated-solvent": "147426724", "run_ids": ["61410e33668de357b4af2262", "61410e74fbe5afad130b6548"]}