{"_id": "613a4c5b55ae00b1b22a92cb", "molecule": {"@module": "pymatgen.core.structure", "@class": "Molecule", "charge": 0, "spin_multiplicity": 1, "sites": [{"name": "F", "species": [{"element": "F", "occu": 1}], "xyz": [1.121181, -0.242277, -0.441221], "properties": {}}, {"name": "F", "species": [{"element": "F", "occu": 1}], "xyz": [2.449474, 1.414915, 0.061822], "properties": {}}, {"name": "F", "species": [{"element": "F", "occu": 1}], "xyz": [2.836298, -2.60851, 2.852848], "properties": {}}, {"name": "F", "species": [{"element": "F", "occu": 1}], "xyz": [4.158273, -0.94891, 3.354452], "properties": {}}, {"name": "F", "species": [{"element": "F", "occu": 1}], "xyz": [2.220644, -1.138454, 4.349887], "properties": {}}, {"name": "F", "species": [{"element": "F", "occu": 1}], "xyz": [2.875373, 0.411636, -2.491878], "properties": {}}, {"name": "O", "species": [{"element": "O", "occu": 1}], "xyz": [2.895989, -0.63303, 0.894525], "properties": {}}, {"name": "C", "species": [{"element": "C", "occu": 1}], "xyz": [2.186818, -0.437412, 2.119518], "properties": {}}, {"name": "C", "species": [{"element": "C", "occu": 1}], "xyz": [2.435781, 0.063019, -0.183288], "properties": {}}, {"name": "C", "species": [{"element": "C", "occu": 1}], "xyz": [2.868097, -1.297526, 3.169841], "properties": {}}, {"name": "C", "species": [{"element": "C", "occu": 1}], "xyz": [3.317492, -0.281343, -1.377116], "properties": {}}, {"name": "H", "species": [{"element": "H", "occu": 1}], "xyz": [2.234798, 0.607189, 2.439311], "properties": {}}, {"name": "H", "species": [{"element": "H", "occu": 1}], "xyz": [1.145763, -0.758954, 2.02689], "properties": {}}, {"name": "H", "species": [{"element": "H", "occu": 1}], "xyz": [4.3473, 0.012004, -1.156449], "properties": {}}, {"name": "H", "species": [{"element": "H", "occu": 1}], "xyz": [3.251192, -1.355135, -1.571612], "properties": {}}]}, "smiles": "FC(F)(OCC(F)(F)F)CF", "inchi": "InChI=1S/C4H4F6O/c5-1-4(9,10)11-2-3(6,7)8/h1-2H2", "formula_alphabetical": "C4 F6 H4 O1", "chemsys": "C-F-H-O", "energy": -829.153153568, "esp": {"1": ["F", -0.219952], "2": ["F", -0.218514], "3": ["F", -0.192065], "4": ["F", -0.192605], "5": ["F", -0.229478], "6": ["F", -0.230464], "7": ["O", -0.423258], "8": ["C", -0.020203], "9": ["C", 0.598144], "10": ["C", 0.616085], "11": ["C", 0.039072], "12": ["H", 0.123853], "13": ["H", 0.122823], "14": ["H", 0.112653], "15": ["H", 0.11391]}, "dipole_moment": {"X": 0.3035, "Y": -0.369, "Z": 0.39, "Tot": 0.6168}, "functional": "B3LYP", "basis": "6-31+G*", "phase": "gas", "tag": "lis", "state": "successful", "wall_time (s)": 7.99456827994436, "version": "0.0.1", "gauss_version": "ES64L-G16RevC.01", "last_updated": "2021-09-09 18:03:07.414000", "polarizability": 56.98, "fluorinated-solvent": "12009928", "run_ids": ["613a4975f998c3d2fbac33a4", "613a4b57cacdba00af7aead4"]}