{"_id": "613a580283020a77332113bf", "molecule": {"@module": "pymatgen.core.structure", "@class": "Molecule", "charge": 0, "spin_multiplicity": 1, "sites": [{"name": "F", "species": [{"element": "F", "occu": 1}], "xyz": [3.126871, 0.946955, 0.958328], "properties": {}}, {"name": "F", "species": [{"element": "F", "occu": 1}], "xyz": [1.289122, 0.181249, 0.070911], "properties": {}}, {"name": "F", "species": [{"element": "F", "occu": 1}], "xyz": [3.19672, -0.097126, -0.954658], "properties": {}}, {"name": "F", "species": [{"element": "F", "occu": 1}], "xyz": [3.995028, -3.422832, -0.85568], "properties": {}}, {"name": "O", "species": [{"element": "O", "occu": 1}], "xyz": [2.317103, -1.315473, 2.315616], "properties": {}}, {"name": "C", "species": [{"element": "C", "occu": 1}], "xyz": [2.815707, -1.427656, 0.998554], "properties": {}}, {"name": "C", "species": [{"element": "C", "occu": 1}], "xyz": [2.086419, -2.601039, 0.328135], "properties": {}}, {"name": "C", "species": [{"element": "C", "occu": 1}], "xyz": [2.59922, -0.092536, 0.267871], "properties": {}}, {"name": "C", "species": [{"element": "C", "occu": 1}], "xyz": [2.643595, -3.046553, -1.013644], "properties": {}}, {"name": "C", "species": [{"element": "C", "occu": 1}], "xyz": [3.282175, -0.983126, 3.326504], "properties": {}}, {"name": "C", "species": [{"element": "C", "occu": 1}], "xyz": [2.553548, -0.93755, 4.657718], "properties": {}}, {"name": "H", "species": [{"element": "H", "occu": 1}], "xyz": [3.898848, -1.61101, 0.991616], "properties": {}}, {"name": "H", "species": [{"element": "H", "occu": 1}], "xyz": [2.150103, -3.436815, 1.032946], "properties": {}}, {"name": "H", "species": [{"element": "H", "occu": 1}], "xyz": [1.024253, -2.352447, 0.216245], "properties": {}}, {"name": "H", "species": [{"element": "H", "occu": 1}], "xyz": [2.105125, -3.92717, -1.379297], "properties": {}}, {"name": "H", "species": [{"element": "H", "occu": 1}], "xyz": [2.618102, -2.261897, -1.77343], "properties": {}}, {"name": "H", "species": [{"element": "H", "occu": 1}], "xyz": [4.071622, -1.751211, 3.335389], "properties": {}}, {"name": "H", "species": [{"element": "H", "occu": 1}], "xyz": [3.746399, -0.014846, 3.100887], "properties": {}}, {"name": "H", "species": [{"element": "H", "occu": 1}], "xyz": [2.086513, -1.904081, 4.87539], "properties": {}}, {"name": "H", "species": [{"element": "H", "occu": 1}], "xyz": [3.257328, -0.69912, 5.463693], "properties": {}}, {"name": "H", "species": [{"element": "H", "occu": 1}], "xyz": [1.771401, -0.171282, 4.639514], "properties": {}}]}, "smiles": "FC(F)(F)[C@@H](OCC)CCF", "inchi": "InChI=1S/C6H10F4O/c1-2-11-5(3-4-7)6(8,9)10/h5H,2-4H2,1H3/t5-/m0/s1", "formula_alphabetical": "C6 F4 H10 O1", "chemsys": "C-F-H-O", "energy": -709.284349751, "esp": {"1": ["F", -0.168514], "2": ["F", -0.169414], "3": ["F", -0.194401], "4": ["F", -0.299353], "5": ["O", -0.559831], "6": ["C", 0.414936], "7": ["C", -0.198781], "8": ["C", 0.402854], "9": ["C", 0.193498], "10": ["C", 0.479748], "11": ["C", -0.314154], "12": ["H", -0.005454], "13": ["H", 0.108435], "14": ["H", 0.059746], "15": ["H", 0.052291], "16": ["H", 0.045533], "17": ["H", -0.038349], "18": ["H", -0.058952], "19": ["H", 0.084348], "20": ["H", 0.064062], "21": ["H", 0.101753]}, "dipole_moment": {"X": -0.4348, "Y": -1.2449, "Z": 1.2391, "Tot": 1.8095}, "functional": "B3LYP", "basis": "6-31+G*", "phase": "gas", "tag": "lis", "state": "successful", "wall_time (s)": 10.187115250970237, "version": "0.0.1", "gauss_version": "ES64L-G16RevC.01", "last_updated": "2021-09-09 18:52:50.452000", "polarizability": 78.83, "fluorinated-solvent": "54247797", "run_ids": ["613a4b09eb2da1694cedd6dc", "613a57fd9a7ede960622f8fb"]}