{"_id": "613a4d5ff328245f719326c4", "molecule": {"@module": "pymatgen.core.structure", "@class": "Molecule", "charge": 0, "spin_multiplicity": 1, "sites": [{"name": "F", "species": [{"element": "F", "occu": 1}], "xyz": [3.17283, -0.660832, 4.875278], "properties": {}}, {"name": "F", "species": [{"element": "F", "occu": 1}], "xyz": [1.301215, -1.678628, 4.307559], "properties": {}}, {"name": "F", "species": [{"element": "F", "occu": 1}], "xyz": [3.242837, -3.397041, 5.135283], "properties": {}}, {"name": "F", "species": [{"element": "F", "occu": 1}], "xyz": [2.779731, -3.633203, 3.014065], "properties": {}}, {"name": "F", "species": [{"element": "F", "occu": 1}], "xyz": [4.629032, -2.644005, 3.626238], "properties": {}}, {"name": "O", "species": [{"element": "O", "occu": 1}], "xyz": [2.137007, 0.559998, 2.585892], "properties": {}}, {"name": "C", "species": [{"element": "C", "occu": 1}], "xyz": [0.385547, 2.156199, 2.231177], "properties": {}}, {"name": "C", "species": [{"element": "C", "occu": 1}], "xyz": [0.706371, 0.700329, 2.545996], "properties": {}}, {"name": "C", "species": [{"element": "C", "occu": 1}], "xyz": [2.638077, -0.74619, 2.550794], "properties": {}}, {"name": "C", "species": [{"element": "C", "occu": 1}], "xyz": [0.94313, 2.662849, 0.890973], "properties": {}}, {"name": "C", "species": [{"element": "C", "occu": 1}], "xyz": [2.595972, -1.440479, 3.91859], "properties": {}}, {"name": "C", "species": [{"element": "C", "occu": 1}], "xyz": [3.325686, -2.808513, 3.934537], "properties": {}}, {"name": "C", "species": [{"element": "C", "occu": 1}], "xyz": [0.388538, 1.928898, -0.336835], "properties": {}}, {"name": "H", "species": [{"element": "H", "occu": 1}], "xyz": [-0.709181, 2.26221, 2.245316], "properties": {}}, {"name": "H", "species": [{"element": "H", "occu": 1}], "xyz": [0.774641, 2.77718, 3.04859], "properties": {}}, {"name": "H", "species": [{"element": "H", "occu": 1}], "xyz": [0.298733, 0.024163, 1.778678], "properties": {}}, {"name": "H", "species": [{"element": "H", "occu": 1}], "xyz": [0.27312, 0.412972, 3.511549], "properties": {}}, {"name": "H", "species": [{"element": "H", "occu": 1}], "xyz": [3.68665, -0.679, 2.245473], "properties": {}}, {"name": "H", "species": [{"element": "H", "occu": 1}], "xyz": [2.098046, -1.382669, 1.833868], "properties": {}}, {"name": "H", "species": [{"element": "H", "occu": 1}], "xyz": [0.711281, 3.733042, 0.806258], "properties": {}}, {"name": "H", "species": [{"element": "H", "occu": 1}], "xyz": [2.036638, 2.580609, 0.907621], "properties": {}}, {"name": "H", "species": [{"element": "H", "occu": 1}], "xyz": [-0.708932, 1.964795, -0.360079], "properties": {}}, {"name": "H", "species": [{"element": "H", "occu": 1}], "xyz": [0.756719, 2.382595, -1.264576], "properties": {}}, {"name": "H", "species": [{"element": "H", "occu": 1}], "xyz": [0.687641, 0.873729, -0.350626], "properties": {}}]}, "smiles": "FC(F)(COCCCC)C(F)(F)F", "inchi": "InChI=1S/C7H11F5O/c1-2-3-4-13-5-6(8,9)7(10,11)12/h2-5H2,1H3", "formula_alphabetical": "C7 F5 H11 O1", "chemsys": "C-F-H-O", "energy": -847.836143777, "esp": {"1": ["F", -0.1452], "2": ["F", -0.173585], "3": ["F", -0.155948], "4": ["F", -0.190312], "5": ["F", -0.182452], "6": ["O", -0.280752], "7": ["C", -0.313927], "8": ["C", 0.201025], "9": ["C", -0.133659], "10": ["C", 0.355488], "11": ["C", 0.201778], "12": ["C", 0.538383], "13": ["C", -0.319119], "14": ["H", 0.07329], "15": ["H", 0.079101], "16": ["H", 0.002674], "17": ["H", 0.067238], "18": ["H", 0.150337], "19": ["H", 0.128178], "20": ["H", -0.048226], "21": ["H", -0.068505], "22": ["H", 0.065381], "23": ["H", 0.06071], "24": ["H", 0.088101]}, "dipole_moment": {"X": -1.0925, "Y": 0.7278, "Z": -2.0279, "Tot": 2.4157}, "functional": "B3LYP", "basis": "6-31+G*", "phase": "gas", "tag": "lis", "state": "successful", "wall_time (s)": 14.34281243395526, "version": "0.0.1", "gauss_version": "ES64L-G16RevC.01", "last_updated": "2021-09-09 18:07:27.474000", "polarizability": 91.49, "fluorinated-solvent": "18345763", "run_ids": ["613a49f2f0193641239b06b8", "613a4d56085d5eba1aaf7e28"]}