{"_id": "614111f6ab79d6ca2ebabd19", "molecule": {"@module": "pymatgen.core.structure", "@class": "Molecule", "charge": 0, "spin_multiplicity": 1, "sites": [{"name": "F", "species": [{"element": "F", "occu": 1}], "xyz": [1.094159, 0.383482, 0.042184], "properties": {}}, {"name": "F", "species": [{"element": "F", "occu": 1}], "xyz": [2.992251, 1.428404, 0.339592], "properties": {}}, {"name": "F", "species": [{"element": "F", "occu": 1}], "xyz": [2.828772, -1.358426, 4.415029], "properties": {}}, {"name": "F", "species": [{"element": "F", "occu": 1}], "xyz": [2.40307, -2.815063, 2.799519], "properties": {}}, {"name": "O", "species": [{"element": "O", "occu": 1}], "xyz": [2.840821, -0.747664, 0.907614], "properties": {}}, {"name": "C", "species": [{"element": "C", "occu": 1}], "xyz": [2.905913, -0.211439, -1.398841], "properties": {}}, {"name": "C", "species": [{"element": "C", "occu": 1}], "xyz": [2.46532, 0.191645, -0.007445], "properties": {}}, {"name": "C", "species": [{"element": "C", "occu": 1}], "xyz": [2.458088, -0.503463, 2.267744], "properties": {}}, {"name": "C", "species": [{"element": "C", "occu": 1}], "xyz": [2.512809, 0.809014, -2.470505], "properties": {}}, {"name": "C", "species": [{"element": "C", "occu": 1}], "xyz": [3.043971, -1.636844, 3.084717], "properties": {}}, {"name": "H", "species": [{"element": "H", "occu": 1}], "xyz": [3.991981, -0.347158, -1.360224], "properties": {}}, {"name": "H", "species": [{"element": "H", "occu": 1}], "xyz": [2.45856, -1.190572, -1.599858], "properties": {}}, {"name": "H", "species": [{"element": "H", "occu": 1}], "xyz": [2.870923, 0.446584, 2.620923], "properties": {}}, {"name": "H", "species": [{"element": "H", "occu": 1}], "xyz": [1.369046, -0.502532, 2.374253], "properties": {}}, {"name": "H", "species": [{"element": "H", "occu": 1}], "xyz": [2.96596, 1.785297, -2.271328], "properties": {}}, {"name": "H", "species": [{"element": "H", "occu": 1}], "xyz": [2.855344, 0.466971, -3.452629], "properties": {}}, {"name": "H", "species": [{"element": "H", "occu": 1}], "xyz": [1.426635, 0.93742, -2.513309], "properties": {}}, {"name": "H", "species": [{"element": "H", "occu": 1}], "xyz": [4.115948, -1.788766, 2.928333], "properties": {}}]}, "smiles": "FC(F)(OCC(F)F)CC", "inchi": "InChI=1S/C5H8F4O/c1-2-5(8,9)10-3-4(6)7/h4H,2-3H2,1H3", "formula_alphabetical": "C5 F4 H8 O1", "chemsys": "C-F-H-O", "energy": -669.986871124, "esp": {"1": ["F", -0.260998], "2": ["F", -0.260411], "3": ["F", -0.285396], "4": ["F", -0.249581], "5": ["O", -0.490594], "6": ["C", -0.012017], "7": ["C", 0.672644], "8": ["C", 0.045872], "9": ["C", -0.222946], "10": ["C", 0.496145], "11": ["H", 0.045864], "12": ["H", 0.055257], "13": ["H", 0.077815], "14": ["H", 0.115875], "15": ["H", 0.066473], "16": ["H", 0.075068], "17": ["H", 0.06775], "18": ["H", 0.06318]}, "dipole_moment": {"X": 1.4028, "Y": 0.4698, "Z": -1.7596, "Tot": 2.2988}, "functional": "B3LYP", "basis": "6-31+G*", "phase": "gas", "tag": "lis", "state": "successful", "wall_time (s)": 9.320985572063364, "version": "0.0.1", "gauss_version": "ES64L-G16RevC.01", "last_updated": "2021-09-14 21:19:50.325000", "polarizability": 66.99, "fluorinated-solvent": "88900253", "run_ids": ["6141113f285ff8f73c6acf68", "614111942b20ec741ad3cd07"]}