{"_id": "613a4c222d81b2a154aa8997", "molecule": {"@module": "pymatgen.core.structure", "@class": "Molecule", "charge": 0, "spin_multiplicity": 1, "sites": [{"name": "F", "species": [{"element": "F", "occu": 1}], "xyz": [1.429107, 1.863871, -1.423661], "properties": {}}, {"name": "F", "species": [{"element": "F", "occu": 1}], "xyz": [2.07776, 1.332303, -3.914247], "properties": {}}, {"name": "F", "species": [{"element": "F", "occu": 1}], "xyz": [3.413901, 2.896005, -3.208196], "properties": {}}, {"name": "F", "species": [{"element": "F", "occu": 1}], "xyz": [4.153541, 0.858161, -3.438335], "properties": {}}, {"name": "F", "species": [{"element": "F", "occu": 1}], "xyz": [3.539824, 3.247201, -0.5616], "properties": {}}, {"name": "F", "species": [{"element": "F", "occu": 1}], "xyz": [3.280538, 1.495392, 0.696785], "properties": {}}, {"name": "F", "species": [{"element": "F", "occu": 1}], "xyz": [4.89876, 1.55164, -0.767877], "properties": {}}, {"name": "O", "species": [{"element": "O", "occu": 1}], "xyz": [2.660532, -0.06503, -1.309284], "properties": {}}, {"name": "C", "species": [{"element": "C", "occu": 1}], "xyz": [1.998136, -1.072522, -2.155249], "properties": {}}, {"name": "C", "species": [{"element": "C", "occu": 1}], "xyz": [2.672802, 1.253753, -1.594582], "properties": {}}, {"name": "C", "species": [{"element": "C", "occu": 1}], "xyz": [2.555539, -2.405516, -1.663235], "properties": {}}, {"name": "C", "species": [{"element": "C", "occu": 1}], "xyz": [0.483583, -0.963142, -2.030418], "properties": {}}, {"name": "C", "species": [{"element": "C", "occu": 1}], "xyz": [3.09361, 1.600591, -3.066141], "properties": {}}, {"name": "C", "species": [{"element": "C", "occu": 1}], "xyz": [3.619268, 1.907181, -0.534112], "properties": {}}, {"name": "C", "species": [{"element": "C", "occu": 1}], "xyz": [4.069753, -2.544846, -1.852018], "properties": {}}, {"name": "H", "species": [{"element": "H", "occu": 1}], "xyz": [2.314198, -0.910399, -3.190679], "properties": {}}, {"name": "H", "species": [{"element": "H", "occu": 1}], "xyz": [2.288512, -2.522516, -0.604658], "properties": {}}, {"name": "H", "species": [{"element": "H", "occu": 1}], "xyz": [2.032093, -3.198633, -2.213385], "properties": {}}, {"name": "H", "species": [{"element": "H", "occu": 1}], "xyz": [0.114861, -0.008379, -2.412288], "properties": {}}, {"name": "H", "species": [{"element": "H", "occu": 1}], "xyz": [0.014343, -1.769367, -2.605965], "properties": {}}, {"name": "H", "species": [{"element": "H", "occu": 1}], "xyz": [0.181297, -1.06015, -0.982186], "properties": {}}, {"name": "H", "species": [{"element": "H", "occu": 1}], "xyz": [4.607727, -1.776184, -1.288575], "properties": {}}, {"name": "H", "species": [{"element": "H", "occu": 1}], "xyz": [4.414809, -3.52576, -1.506591], "properties": {}}, {"name": "H", "species": [{"element": "H", "occu": 1}], "xyz": [4.346589, -2.443437, -2.909078], "properties": {}}]}, "smiles": "FC(O[C@@H](CC)C)(C(F)(F)F)C(F)(F)F", "inchi": "InChI=1S/C7H9F7O/c1-3-4(2)15-5(8,6(9,10)11)7(12,13)14/h4H,3H2,1-2H3/t4-/m1/s1", "formula_alphabetical": "C7 F7 H9 O1", "chemsys": "C-F-H-O", "energy": -1046.33311021, "esp": {"1": ["F", -0.173977], "2": ["F", -0.1595], "3": ["F", -0.152924], "4": ["F", -0.163727], "5": ["F", -0.187904], "6": ["F", -0.172236], "7": ["F", -0.187432], "8": ["O", -0.325673], "9": ["C", 0.401499], "10": ["C", 0.098579], "11": ["C", -0.053675], "12": ["C", -0.519684], "13": ["C", 0.478512], "14": ["C", 0.598291], "15": ["C", -0.213512], "16": ["H", 0.03089], "17": ["H", 0.048086], "18": ["H", 0.03697], "19": ["H", 0.162169], "20": ["H", 0.120686], "21": ["H", 0.149044], "22": ["H", 0.062347], "23": ["H", 0.070982], "24": ["H", 0.05219]}, "dipole_moment": {"X": -1.0031, "Y": -2.9222, "Z": -0.9203, "Tot": 3.2237}, "functional": "B3LYP", "basis": "6-31+G*", "phase": "gas", "tag": "lis", "state": "successful", "wall_time (s)": 17.41413662408013, "version": "0.0.1", "gauss_version": "ES64L-G16RevC.01", "last_updated": "2021-09-09 18:02:10.055000", "polarizability": 92.69, "fluorinated-solvent": "22979426", "run_ids": ["613a495c91d5d87d4f66b9a3", "613a4b55d45a3d99a898c4fd"]}