{"_id": "61411425ba0c1e2d18d9fb6f", "molecule": {"@module": "pymatgen.core.structure", "@class": "Molecule", "charge": 0, "spin_multiplicity": 1, "sites": [{"name": "F", "species": [{"element": "F", "occu": 1}], "xyz": [1.123557, 0.079469, -0.158487], "properties": {}}, {"name": "O", "species": [{"element": "O", "occu": 1}], "xyz": [3.108485, -1.018061, -0.439251], "properties": {}}, {"name": "C", "species": [{"element": "C", "occu": 1}], "xyz": [2.538786, 0.152248, 0.049716], "properties": {}}, {"name": "C", "species": [{"element": "C", "occu": 1}], "xyz": [3.053976, 1.290509, -0.81245], "properties": {}}, {"name": "C", "species": [{"element": "C", "occu": 1}], "xyz": [2.726183, 0.370327, 1.547691], "properties": {}}, {"name": "C", "species": [{"element": "C", "occu": 1}], "xyz": [2.771348, -2.250909, 0.217488], "properties": {}}, {"name": "C", "species": [{"element": "C", "occu": 1}], "xyz": [3.194771, -3.384285, -0.701777], "properties": {}}, {"name": "H", "species": [{"element": "H", "occu": 1}], "xyz": [2.54869, 2.222449, -0.543707], "properties": {}}, {"name": "H", "species": [{"element": "H", "occu": 1}], "xyz": [4.13249, 1.409538, -0.669402], "properties": {}}, {"name": "H", "species": [{"element": "H", "occu": 1}], "xyz": [2.857786, 1.062923, -1.863719], "properties": {}}, {"name": "H", "species": [{"element": "H", "occu": 1}], "xyz": [2.308705, 1.339744, 1.834117], "properties": {}}, {"name": "H", "species": [{"element": "H", "occu": 1}], "xyz": [2.212277, -0.40394, 2.123547], "properties": {}}, {"name": "H", "species": [{"element": "H", "occu": 1}], "xyz": [3.792691, 0.353949, 1.795508], "properties": {}}, {"name": "H", "species": [{"element": "H", "occu": 1}], "xyz": [3.29967, -2.315292, 1.179263], "properties": {}}, {"name": "H", "species": [{"element": "H", "occu": 1}], "xyz": [1.691772, -2.282149, 0.407744], "properties": {}}, {"name": "H", "species": [{"element": "H", "occu": 1}], "xyz": [4.268834, -3.329449, -0.910684], "properties": {}}, {"name": "H", "species": [{"element": "H", "occu": 1}], "xyz": [2.979947, -4.351748, -0.232488], "properties": {}}, {"name": "H", "species": [{"element": "H", "occu": 1}], "xyz": [2.655022, -3.327854, -1.652859], "properties": {}}]}, "smiles": "FC(OCC)(C)C", "inchi": "InChI=1S/C5H11FO/c1-4-7-5(2,3)6/h4H2,1-3H3", "formula_alphabetical": "C5 F1 H11 O1", "chemsys": "C-F-H-O", "energy": -372.248257535, "esp": {"1": ["F", -0.341122], "2": ["O", -0.526901], "3": ["C", 0.75185], "4": ["C", -0.55954], "5": ["C", -0.414457], "6": ["C", 0.406504], "7": ["C", -0.362816], "8": ["H", 0.147357], "9": ["H", 0.146022], "10": ["H", 0.166137], "11": ["H", 0.112958], "12": ["H", 0.093557], "13": ["H", 0.117817], "14": ["H", -0.022237], "15": ["H", -0.005674], "16": ["H", 0.105019], "17": ["H", 0.073412], "18": ["H", 0.112114]}, "dipole_moment": {"X": 1.2802, "Y": -0.2557, "Z": 1.3559, "Tot": 1.8822}, "functional": "B3LYP", "basis": "6-31+G*", "phase": "gas", "tag": "lis", "state": "successful", "wall_time (s)": 6.4443979060743, "version": "0.0.1", "gauss_version": "ES64L-G16RevC.01", "last_updated": "2021-09-14 21:29:08.720000", "polarizability": 65.49, "fluorinated-solvent": "88146654", "run_ids": ["6141138ef07bff37de5d9234", "614113e4bd1e6fb0f1b2153f"]}