{"_id": "61411e3c6026432dc4372aba", "molecule": {"@module": "pymatgen.core.structure", "@class": "Molecule", "charge": 0, "spin_multiplicity": 1, "sites": [{"name": "F", "species": [{"element": "F", "occu": 1}], "xyz": [0.999815, -0.374721, -0.15755], "properties": {}}, {"name": "O", "species": [{"element": "O", "occu": 1}], "xyz": [2.708305, 0.316655, 1.212503], "properties": {}}, {"name": "C", "species": [{"element": "C", "occu": 1}], "xyz": [2.381632, 0.008146, -0.101269], "properties": {}}, {"name": "C", "species": [{"element": "C", "occu": 1}], "xyz": [2.296203, 1.566402, 1.811917], "properties": {}}, {"name": "C", "species": [{"element": "C", "occu": 1}], "xyz": [3.181465, -1.230902, -0.468637], "properties": {}}, {"name": "C", "species": [{"element": "C", "occu": 1}], "xyz": [2.530263, 1.154026, -1.097436], "properties": {}}, {"name": "C", "species": [{"element": "C", "occu": 1}], "xyz": [0.781584, 1.645707, 2.005824], "properties": {}}, {"name": "C", "species": [{"element": "C", "occu": 1}], "xyz": [3.05169, 1.632422, 3.135127], "properties": {}}, {"name": "H", "species": [{"element": "H", "occu": 1}], "xyz": [2.633383, 2.393635, 1.171543], "properties": {}}, {"name": "H", "species": [{"element": "H", "occu": 1}], "xyz": [2.864089, -1.606134, -1.445679], "properties": {}}, {"name": "H", "species": [{"element": "H", "occu": 1}], "xyz": [4.249177, -0.992318, -0.500669], "properties": {}}, {"name": "H", "species": [{"element": "H", "occu": 1}], "xyz": [3.012785, -2.003349, 0.286612], "properties": {}}, {"name": "H", "species": [{"element": "H", "occu": 1}], "xyz": [2.338487, 0.781273, -2.107359], "properties": {}}, {"name": "H", "species": [{"element": "H", "occu": 1}], "xyz": [1.81435, 1.954056, -0.892579], "properties": {}}, {"name": "H", "species": [{"element": "H", "occu": 1}], "xyz": [3.546569, 1.559687, -1.056242], "properties": {}}, {"name": "H", "species": [{"element": "H", "occu": 1}], "xyz": [0.435135, 0.79097, 2.597162], "properties": {}}, {"name": "H", "species": [{"element": "H", "occu": 1}], "xyz": [0.525728, 2.569814, 2.538699], "properties": {}}, {"name": "H", "species": [{"element": "H", "occu": 1}], "xyz": [0.246718, 1.632535, 1.053128], "properties": {}}, {"name": "H", "species": [{"element": "H", "occu": 1}], "xyz": [4.131313, 1.560897, 2.966733], "properties": {}}, {"name": "H", "species": [{"element": "H", "occu": 1}], "xyz": [2.837202, 2.576458, 3.648925], "properties": {}}, {"name": "H", "species": [{"element": "H", "occu": 1}], "xyz": [2.748319, 0.804038, 3.785495], "properties": {}}]}, "smiles": "FC(OC(C)C)(C)C", "inchi": "InChI=1S/C6H13FO/c1-5(2)8-6(3,4)7/h5H,1-4H3", "formula_alphabetical": "C6 F1 H13 O1", "chemsys": "C-F-H-O", "energy": -411.564168234, "esp": {"1": ["F", -0.3668], "2": ["O", -0.578991], "3": ["C", 0.844501], "4": ["C", 0.621101], "5": ["C", -0.505046], "6": ["C", -0.524202], "7": ["C", -0.484404], "8": ["C", -0.476781], "9": ["H", -0.047093], "10": ["H", 0.127111], "11": ["H", 0.125706], "12": ["H", 0.147294], "13": ["H", 0.134714], "14": ["H", 0.133817], "15": ["H", 0.130926], "16": ["H", 0.138759], "17": ["H", 0.097183], "18": ["H", 0.125089], "19": ["H", 0.114548], "20": ["H", 0.108638], "21": ["H", 0.133932]}, "dipole_moment": {"X": 1.2961, "Y": 1.6307, "Z": -0.3833, "Tot": 2.118}, "functional": "B3LYP", "basis": "6-31+G*", "phase": "gas", "tag": "lis", "state": "successful", "wall_time (s)": 9.035136241000146, "version": "0.0.1", "gauss_version": "ES64L-G16RevC.01", "last_updated": "2021-09-14 22:12:11.793000", "polarizability": 77.01, "fluorinated-solvent": "58366789", "run_ids": ["61411e2068e90f5abae4f100", "61411e36b17f28a28d7c746b"]}