{"_id": "613a4c919603e767eb20d328", "molecule": {"@module": "pymatgen.core.structure", "@class": "Molecule", "charge": 0, "spin_multiplicity": 1, "sites": [{"name": "F", "species": [{"element": "F", "occu": 1}], "xyz": [1.243583, -0.091919, -0.103709], "properties": {}}, {"name": "F", "species": [{"element": "F", "occu": 1}], "xyz": [2.720923, 1.628753, 1.678377], "properties": {}}, {"name": "F", "species": [{"element": "F", "occu": 1}], "xyz": [4.386425, 1.507132, 0.240914], "properties": {}}, {"name": "F", "species": [{"element": "F", "occu": 1}], "xyz": [2.228733, -0.925034, 2.213932], "properties": {}}, {"name": "F", "species": [{"element": "F", "occu": 1}], "xyz": [2.494699, -2.357905, 0.569362], "properties": {}}, {"name": "F", "species": [{"element": "F", "occu": 1}], "xyz": [2.935281, 3.68736, -0.120296], "properties": {}}, {"name": "F", "species": [{"element": "F", "occu": 1}], "xyz": [2.573673, 2.320666, -1.779665], "properties": {}}, {"name": "F", "species": [{"element": "F", "occu": 1}], "xyz": [1.060927, 2.58356, -0.228384], "properties": {}}, {"name": "F", "species": [{"element": "F", "occu": 1}], "xyz": [4.493215, -2.464792, 2.303269], "properties": {}}, {"name": "F", "species": [{"element": "F", "occu": 1}], "xyz": [5.176748, -1.628239, 0.408806], "properties": {}}, {"name": "F", "species": [{"element": "F", "occu": 1}], "xyz": [4.903566, -0.332276, 2.149832], "properties": {}}, {"name": "F", "species": [{"element": "F", "occu": 1}], "xyz": [2.049773, 0.005709, -3.738956], "properties": {}}, {"name": "F", "species": [{"element": "F", "occu": 1}], "xyz": [4.141907, -0.606984, -3.788015], "properties": {}}, {"name": "F", "species": [{"element": "F", "occu": 1}], "xyz": [2.569959, -2.058589, -4.241409], "properties": {}}, {"name": "O", "species": [{"element": "O", "occu": 1}], "xyz": [3.224796, -0.325457, -1.20411], "properties": {}}, {"name": "C", "species": [{"element": "C", "occu": 1}], "xyz": [2.624936, -0.073065, -0.002604], "properties": {}}, {"name": "C", "species": [{"element": "C", "occu": 1}], "xyz": [3.044822, 1.385443, 0.384458], "properties": {}}, {"name": "C", "species": [{"element": "C", "occu": 1}], "xyz": [2.932622, -1.171165, 1.088761], "properties": {}}, {"name": "C", "species": [{"element": "C", "occu": 1}], "xyz": [2.377972, 2.515749, -0.469699], "properties": {}}, {"name": "C", "species": [{"element": "C", "occu": 1}], "xyz": [4.420407, -1.395947, 1.495698], "properties": {}}, {"name": "C", "species": [{"element": "C", "occu": 1}], "xyz": [2.802233, -1.437582, -2.000878], "properties": {}}, {"name": "C", "species": [{"element": "C", "occu": 1}], "xyz": [2.897359, -1.002936, -3.45645], "properties": {}}, {"name": "H", "species": [{"element": "H", "occu": 1}], "xyz": [3.467449, -2.289359, -1.841333], "properties": {}}, {"name": "H", "species": [{"element": "H", "occu": 1}], "xyz": [1.768541, -1.717234, -1.793308], "properties": {}}]}, "smiles": "FC(OCC(F)(F)F)(C(F)(F)C(F)(F)F)C(F)(F)C(F)(F)F", "inchi": "InChI=1S/C7H2F14O/c8-2(9,10)1-22-5(15,3(11,12)6(16,17)18)4(13,14)7(19,20)21/h1H2", "formula_alphabetical": "C7 F14 H2 O1", "chemsys": "C-F-H-O", "energy": -1741.01776283, "esp": {"1": ["F", -0.125531], "2": ["F", -0.101091], "3": ["F", -0.105366], "4": ["F", -0.113789], "5": ["F", -0.129676], "6": ["F", -0.145217], "7": ["F", -0.140494], "8": ["F", -0.153631], "9": ["F", -0.129896], "10": ["F", -0.118415], "11": ["F", -0.109153], "12": ["F", -0.191068], "13": ["F", -0.191792], "14": ["F", -0.228581], "15": ["O", -0.266242], "16": ["C", 0.231445], "17": ["C", 0.099089], "18": ["C", 0.201044], "19": ["C", 0.510856], "20": ["C", 0.402878], "21": ["C", -0.136097], "22": ["C", 0.645064], "23": ["H", 0.142692], "24": ["H", 0.15297]}, "dipole_moment": {"X": -0.1793, "Y": -1.787, "Z": 0.3201, "Tot": 1.8243}, "functional": "B3LYP", "basis": "6-31+G*", "phase": "gas", "tag": "lis", "state": "successful", "wall_time (s)": 29.521055130055174, "version": "0.0.1", "gauss_version": "ES64L-G16RevC.01", "last_updated": "2021-09-09 18:04:01.503000", "polarizability": 97.68, "fluorinated-solvent": "15536384", "run_ids": ["613a499721e20f87ba9d8609", "613a4b7cda070ba2b9e88ad8"]}