{"_id": "613a555b28735ae70a4dae0e", "molecule": {"@module": "pymatgen.core.structure", "@class": "Molecule", "charge": 0, "spin_multiplicity": 1, "sites": [{"name": "F", "species": [{"element": "F", "occu": 1}], "xyz": [1.608668, 0.692695, 0.055993], "properties": {}}, {"name": "F", "species": [{"element": "F", "occu": 1}], "xyz": [3.458936, 1.562794, 1.788436], "properties": {}}, {"name": "F", "species": [{"element": "F", "occu": 1}], "xyz": [5.017105, 0.283631, 0.953666], "properties": {}}, {"name": "F", "species": [{"element": "F", "occu": 1}], "xyz": [4.148263, 1.88633, -0.247776], "properties": {}}, {"name": "F", "species": [{"element": "F", "occu": 1}], "xyz": [1.366961, -1.857549, 0.720211], "properties": {}}, {"name": "F", "species": [{"element": "F", "occu": 1}], "xyz": [3.502479, -2.112638, 1.075721], "properties": {}}, {"name": "F", "species": [{"element": "F", "occu": 1}], "xyz": [2.326162, -0.806989, 2.367986], "properties": {}}, {"name": "O", "species": [{"element": "O", "occu": 1}], "xyz": [3.225333, -0.429355, -1.096788], "properties": {}}, {"name": "C", "species": [{"element": "C", "occu": 1}], "xyz": [2.793864, -0.033615, 0.123274], "properties": {}}, {"name": "C", "species": [{"element": "C", "occu": 1}], "xyz": [2.378328, -1.287429, -1.919175], "properties": {}}, {"name": "C", "species": [{"element": "C", "occu": 1}], "xyz": [3.879715, 0.946545, 0.671952], "properties": {}}, {"name": "C", "species": [{"element": "C", "occu": 1}], "xyz": [2.494589, -1.221779, 1.102443], "properties": {}}, {"name": "C", "species": [{"element": "C", "occu": 1}], "xyz": [2.849098, -1.128324, -3.355674], "properties": {}}, {"name": "C", "species": [{"element": "C", "occu": 1}], "xyz": [2.642648, 0.286941, -3.906131], "properties": {}}, {"name": "H", "species": [{"element": "H", "occu": 1}], "xyz": [2.488395, -2.318295, -1.567234], "properties": {}}, {"name": "H", "species": [{"element": "H", "occu": 1}], "xyz": [1.336755, -0.972747, -1.801453], "properties": {}}, {"name": "H", "species": [{"element": "H", "occu": 1}], "xyz": [3.908351, -1.410249, -3.411124], "properties": {}}, {"name": "H", "species": [{"element": "H", "occu": 1}], "xyz": [2.294197, -1.858962, -3.960056], "properties": {}}, {"name": "H", "species": [{"element": "H", "occu": 1}], "xyz": [3.20138, 1.020599, -3.316238], "properties": {}}, {"name": "H", "species": [{"element": "H", "occu": 1}], "xyz": [2.983205, 0.354258, -4.945331], "properties": {}}, {"name": "H", "species": [{"element": "H", "occu": 1}], "xyz": [1.582338, 0.568926, -3.879703], "properties": {}}]}, "smiles": "FC(OCCC)(C(F)(F)F)C(F)(F)F", "inchi": "InChI=1S/C6H7F7O/c1-2-3-14-4(7,5(8,9)10)6(11,12)13/h2-3H2,1H3", "formula_alphabetical": "C6 F7 H7 O1", "chemsys": "C-F-H-O", "energy": -1007.01645698, "esp": {"1": ["F", -0.144951], "2": ["F", -0.157341], "3": ["F", -0.167192], "4": ["F", -0.141311], "5": ["F", -0.177755], "6": ["F", -0.156944], "7": ["F", -0.164331], "8": ["O", -0.270194], "9": ["C", 0.026045], "10": ["C", 0.092215], "11": ["C", 0.507934], "12": ["C", 0.545369], "13": ["C", 0.091987], "14": ["C", -0.198342], "15": ["H", 0.040374], "16": ["H", 0.08137], "17": ["H", 0.018758], "18": ["H", -0.000291], "19": ["H", 0.068048], "20": ["H", 0.052042], "21": ["H", 0.05451]}, "dipole_moment": {"X": -0.6825, "Y": -1.4582, "Z": -2.5511, "Tot": 3.0167}, "functional": "B3LYP", "basis": "6-31+G*", "phase": "gas", "tag": "lis", "state": "successful", "wall_time (s)": 14.186056914972141, "version": "0.0.1", "gauss_version": "ES64L-G16RevC.01", "last_updated": "2021-09-09 18:41:30.914000", "polarizability": 81.35, "fluorinated-solvent": "21909171", "run_ids": ["613a4adf4e311c9ccb0cc6c2", "613a5554a90eab3cba6c5ff5"]}