{"_id": "613a4cbdbc0eaf0eb4c87c3b", "molecule": {"@module": "pymatgen.core.structure", "@class": "Molecule", "charge": 0, "spin_multiplicity": 1, "sites": [{"name": "F", "species": [{"element": "F", "occu": 1}], "xyz": [0.98174, -0.182771, -0.1571], "properties": {}}, {"name": "F", "species": [{"element": "F", "occu": 1}], "xyz": [2.086847, 1.625803, -1.791253], "properties": {}}, {"name": "F", "species": [{"element": "F", "occu": 1}], "xyz": [4.12221, 1.030607, -1.276042], "properties": {}}, {"name": "F", "species": [{"element": "F", "occu": 1}], "xyz": [2.799893, -0.357895, -2.320328], "properties": {}}, {"name": "F", "species": [{"element": "F", "occu": 1}], "xyz": [2.04724, 2.28663, 0.810346], "properties": {}}, {"name": "F", "species": [{"element": "F", "occu": 1}], "xyz": [1.762645, 0.652429, 2.219252], "properties": {}}, {"name": "F", "species": [{"element": "F", "occu": 1}], "xyz": [3.770121, 1.167121, 1.542468], "properties": {}}, {"name": "O", "species": [{"element": "O", "occu": 1}], "xyz": [3.032243, -1.11952, 0.188559], "properties": {}}, {"name": "C", "species": [{"element": "C", "occu": 1}], "xyz": [2.349408, 0.032079, -0.015828], "properties": {}}, {"name": "C", "species": [{"element": "C", "occu": 1}], "xyz": [2.850805, 0.599655, -1.382615], "properties": {}}, {"name": "C", "species": [{"element": "C", "occu": 1}], "xyz": [2.484953, 1.066013, 1.156691], "properties": {}}, {"name": "C", "species": [{"element": "C", "occu": 1}], "xyz": [2.740795, -1.927226, 1.367909], "properties": {}}, {"name": "C", "species": [{"element": "C", "occu": 1}], "xyz": [3.334425, -3.297733, 1.10994], "properties": {}}, {"name": "H", "species": [{"element": "H", "occu": 1}], "xyz": [3.195905, -1.44726, 2.240231], "properties": {}}, {"name": "H", "species": [{"element": "H", "occu": 1}], "xyz": [1.656664, -1.971034, 1.505809], "properties": {}}, {"name": "H", "species": [{"element": "H", "occu": 1}], "xyz": [4.413159, -3.225392, 0.937473], "properties": {}}, {"name": "H", "species": [{"element": "H", "occu": 1}], "xyz": [3.16325, -3.940762, 1.98083], "properties": {}}, {"name": "H", "species": [{"element": "H", "occu": 1}], "xyz": [2.870495, -3.762166, 0.234128], "properties": {}}]}, "smiles": "FC(OCC)(C(F)(F)F)C(F)(F)F", "inchi": "InChI=1S/C5H5F7O/c1-2-13-3(6,4(7,8)9)5(10,11)12/h2H2,1H3", "formula_alphabetical": "C5 F7 H5 O1", "chemsys": "C-F-H-O", "energy": -967.701936259, "esp": {"1": ["F", -0.132774], "2": ["F", -0.170817], "3": ["F", -0.177454], "4": ["F", -0.15583], "5": ["F", -0.158243], "6": ["F", -0.179794], "7": ["F", -0.154656], "8": ["O", -0.303791], "9": ["C", -0.02528], "10": ["C", 0.573547], "11": ["C", 0.535385], "12": ["C", 0.352779], "13": ["C", -0.39837], "14": ["H", 0.012754], "15": ["H", 0.031797], "16": ["H", 0.120596], "17": ["H", 0.101352], "18": ["H", 0.128797]}, "dipole_moment": {"X": 0.2991, "Y": -2.4096, "Z": 1.84, "Tot": 3.0465}, "functional": "B3LYP", "basis": "6-31+G*", "phase": "gas", "tag": "lis", "state": "successful", "wall_time (s)": 10.980746818007901, "version": "0.0.1", "gauss_version": "ES64L-G16RevC.01", "last_updated": "2021-09-09 18:04:45.623000", "polarizability": 70.03, "fluorinated-solvent": "179387", "run_ids": ["613a49af0fa893e666b571dd", "613a4b73cf4463501cf2681d"]}