{"_id": "613a5034cb7539df83a28caf", "molecule": {"@module": "pymatgen.core.structure", "@class": "Molecule", "charge": 0, "spin_multiplicity": 1, "sites": [{"name": "F", "species": [{"element": "F", "occu": 1}], "xyz": [0.893798, 0.177501, 0.264105], "properties": {}}, {"name": "F", "species": [{"element": "F", "occu": 1}], "xyz": [2.37375, 2.480034, -0.150357], "properties": {}}, {"name": "F", "species": [{"element": "F", "occu": 1}], "xyz": [4.05992, 1.293631, -0.866697], "properties": {}}, {"name": "F", "species": [{"element": "F", "occu": 1}], "xyz": [2.144561, 1.212861, -1.908575], "properties": {}}, {"name": "F", "species": [{"element": "F", "occu": 1}], "xyz": [2.349419, 1.261782, 2.296321], "properties": {}}, {"name": "F", "species": [{"element": "F", "occu": 1}], "xyz": [2.349448, -0.918059, 2.316008], "properties": {}}, {"name": "F", "species": [{"element": "F", "occu": 1}], "xyz": [4.131298, 0.166948, 1.674749], "properties": {}}, {"name": "F", "species": [{"element": "F", "occu": 1}], "xyz": [1.106, -2.310084, -1.421562], "properties": {}}, {"name": "F", "species": [{"element": "F", "occu": 1}], "xyz": [2.248969, -4.543307, -0.326069], "properties": {}}, {"name": "F", "species": [{"element": "F", "occu": 1}], "xyz": [3.685899, -3.375923, -1.484362], "properties": {}}, {"name": "F", "species": [{"element": "F", "occu": 1}], "xyz": [3.744505, -3.32496, 0.699826], "properties": {}}, {"name": "O", "species": [{"element": "O", "occu": 1}], "xyz": [2.699966, -1.033363, -0.447987], "properties": {}}, {"name": "C", "species": [{"element": "C", "occu": 1}], "xyz": [2.261317, 0.118744, 0.185368], "properties": {}}, {"name": "C", "species": [{"element": "C", "occu": 1}], "xyz": [2.728841, 1.311007, -0.707757], "properties": {}}, {"name": "C", "species": [{"element": "C", "occu": 1}], "xyz": [2.792583, 0.173654, 1.65438], "properties": {}}, {"name": "C", "species": [{"element": "C", "occu": 1}], "xyz": [1.943251, -2.20472, -0.341123], "properties": {}}, {"name": "C", "species": [{"element": "C", "occu": 1}], "xyz": [2.933707, -3.3847, -0.375633], "properties": {}}, {"name": "H", "species": [{"element": "H", "occu": 1}], "xyz": [1.344417, -2.246256, 0.570067], "properties": {}}]}, "smiles": "FC(O[C@@H](F)C(F)(F)F)(C(F)(F)F)C(F)(F)F", "inchi": "InChI=1S/C5HF11O/c6-1(2(7,8)9)17-3(10,4(11,12)13)5(14,15)16/h1H/t1-/m1/s1", "formula_alphabetical": "C5 F11 H1 O1", "chemsys": "C-F-H-O", "energy": -1364.67410971, "esp": {"1": ["F", -0.090349], "2": ["F", -0.172632], "3": ["F", -0.167165], "4": ["F", -0.13532], "5": ["F", -0.149166], "6": ["F", -0.158195], "7": ["F", -0.141339], "8": ["F", -0.133326], "9": ["F", -0.181384], "10": ["F", -0.146886], "11": ["F", -0.179652], "12": ["O", -0.192718], "13": ["C", -0.040238], "14": ["C", 0.587378], "15": ["C", 0.53146], "16": ["C", 0.011406], "17": ["C", 0.556647], "18": ["H", 0.201479]}, "dipole_moment": {"X": -0.5918, "Y": 0.1368, "Z": 1.1925, "Tot": 1.3383}, "functional": "B3LYP", "basis": "6-31+G*", "phase": "gas", "tag": "lis", "state": "successful", "wall_time (s)": 19.75616640500084, "version": "0.0.1", "gauss_version": "ES64L-G16RevC.01", "last_updated": "2021-09-09 18:19:32.649000", "polarizability": 72.97, "fluorinated-solvent": "22750744", "run_ids": ["613a4a8c7f80b2591c37b3f4", "613a502df8a0b02227b5d90f"]}