{"_id": "6141153e0349e39357e63317", "molecule": {"@module": "pymatgen.core.structure", "@class": "Molecule", "charge": 0, "spin_multiplicity": 1, "sites": [{"name": "F", "species": [{"element": "F", "occu": 1}], "xyz": [2.514014, 5.936084, 0.637157], "properties": {}}, {"name": "F", "species": [{"element": "F", "occu": 1}], "xyz": [-2.561595, 3.705625, -2.030556], "properties": {}}, {"name": "F", "species": [{"element": "F", "occu": 1}], "xyz": [1.601982, 6.622062, -1.931522], "properties": {}}, {"name": "F", "species": [{"element": "F", "occu": 1}], "xyz": [2.715977, 8.153721, -0.862632], "properties": {}}, {"name": "F", "species": [{"element": "F", "occu": 1}], "xyz": [3.652197, 7.087624, -2.520373], "properties": {}}, {"name": "F", "species": [{"element": "F", "occu": 1}], "xyz": [4.93167, 7.399861, 0.478625], "properties": {}}, {"name": "F", "species": [{"element": "F", "occu": 1}], "xyz": [5.062782, 5.305167, 1.059465], "properties": {}}, {"name": "F", "species": [{"element": "F", "occu": 1}], "xyz": [5.679375, 5.919759, -0.938852], "properties": {}}, {"name": "F", "species": [{"element": "F", "occu": 1}], "xyz": [-4.875651, 4.738311, -0.705827], "properties": {}}, {"name": "F", "species": [{"element": "F", "occu": 1}], "xyz": [-4.700978, 2.585527, -0.971181], "properties": {}}, {"name": "F", "species": [{"element": "F", "occu": 1}], "xyz": [-4.370254, 3.46844, 0.994176], "properties": {}}, {"name": "F", "species": [{"element": "F", "occu": 1}], "xyz": [-0.744164, 5.192553, -0.430487], "properties": {}}, {"name": "F", "species": [{"element": "F", "occu": 1}], "xyz": [-2.613893, 6.159954, -0.968667], "properties": {}}, {"name": "F", "species": [{"element": "F", "occu": 1}], "xyz": [-2.317978, 5.421179, 1.063714], "properties": {}}, {"name": "O", "species": [{"element": "O", "occu": 1}], "xyz": [0.358736, 1.636206, -1.677738], "properties": {}}, {"name": "O", "species": [{"element": "O", "occu": 1}], "xyz": [3.207108, 4.683946, -1.138211], "properties": {}}, {"name": "O", "species": [{"element": "O", "occu": 1}], "xyz": [-1.884866, 2.853933, -0.026569], "properties": {}}, {"name": "C", "species": [{"element": "C", "occu": 1}], "xyz": [2.638709, 2.359956, -1.114839], "properties": {}}, {"name": "C", "species": [{"element": "C", "occu": 1}], "xyz": [-0.931911, 0.665147, 0.210237], "properties": {}}, {"name": "C", "species": [{"element": "C", "occu": 1}], "xyz": [3.458428, 3.436983, -0.42398], "properties": {}}, {"name": "C", "species": [{"element": "C", "occu": 1}], "xyz": [-2.174546, 1.437213, -0.21813], "properties": {}}, {"name": "C", "species": [{"element": "C", "occu": 1}], "xyz": [1.134827, 2.644895, -1.036222], "properties": {}}, {"name": "C", "species": [{"element": "C", "occu": 1}], "xyz": [0.094243, 0.467302, -0.918541], "properties": {}}, {"name": "C", "species": [{"element": "C", "occu": 1}], "xyz": [3.329785, 5.865776, -0.486288], "properties": {}}, {"name": "C", "species": [{"element": "C", "occu": 1}], "xyz": [-2.652846, 3.781814, -0.647872], "properties": {}}, {"name": "C", "species": [{"element": "C", "occu": 1}], "xyz": [2.81533, 6.96184, -1.47353], "properties": {}}, {"name": "C", "species": [{"element": "C", "occu": 1}], "xyz": [4.780961, 6.141852, 0.036915], "properties": {}}, {"name": "C", "species": [{"element": "C", "occu": 1}], "xyz": [-4.184051, 3.652716, -0.326603], "properties": {}}, {"name": "C", "species": [{"element": "C", "occu": 1}], "xyz": [-2.071628, 5.17391, -0.23766], "properties": {}}, {"name": "H", "species": [{"element": "H", "occu": 1}], "xyz": [2.93962, 2.277625, -2.165667], "properties": {}}, {"name": "H", "species": [{"element": "H", "occu": 1}], "xyz": [2.878506, 1.403952, -0.630739], "properties": {}}, {"name": "H", "species": [{"element": "H", "occu": 1}], "xyz": [-1.236677, -0.330294, 0.560061], "properties": {}}, {"name": "H", "species": [{"element": "H", "occu": 1}], "xyz": [-0.492424, 1.174145, 1.076298], "properties": {}}, {"name": "H", "species": [{"element": "H", "occu": 1}], "xyz": [3.158307, 3.559374, 0.621006], "properties": {}}, {"name": "H", "species": [{"element": "H", "occu": 1}], "xyz": [4.531338, 3.225402, -0.467755], "properties": {}}, {"name": "H", "species": [{"element": "H", "occu": 1}], "xyz": [-3.036746, 1.182916, 0.4056], "properties": {}}, {"name": "H", "species": [{"element": "H", "occu": 1}], "xyz": [-2.418471, 1.263326, -1.269771], "properties": {}}, {"name": "H", "species": [{"element": "H", "occu": 1}], "xyz": [0.820747, 2.781418, 0.008085], "properties": {}}, {"name": "H", "species": [{"element": "H", "occu": 1}], "xyz": [0.902294, 3.57118, -1.563759], "properties": {}}, {"name": "H", "species": [{"element": "H", "occu": 1}], "xyz": [-0.302101, -0.24932, -1.646646], "properties": {}}, {"name": "H", "species": [{"element": "H", "occu": 1}], "xyz": [1.019183, 0.035632, -0.503221], "properties": {}}]}, "smiles": "FC(OCCCOCCCOC(F)(C(F)(F)F)C(F)(F)F)(C(F)(F)F)C(F)(F)F", "inchi": "InChI=1S/C12H12F14O3/c13-7(9(15,16)17,10(18,19)20)28-5-1-3-27-4-2-6-29-8(14,11(21,22)23)12(24,25)26/h1-6H2", "formula_alphabetical": "C12 F14 H12 O3", "chemsys": "C-F-H-O", "energy": -2088.02677714, "esp": {"1": ["F", -0.129783], "2": ["F", -0.11879], "3": ["F", -0.146275], "4": ["F", -0.150103], "5": ["F", -0.158514], "6": ["F", -0.155029], "7": ["F", -0.170256], "8": ["F", -0.154539], "9": ["F", -0.172966], "10": ["F", -0.199694], "11": ["F", -0.171534], "12": ["F", -0.134092], "13": ["F", -0.151115], "14": ["F", -0.167454], "15": ["O", -0.498142], "16": ["O", -0.25857], "17": ["O", -0.273511], "18": ["C", -0.260168], "19": ["C", -0.165748], "20": ["C", 0.116008], "21": ["C", 0.138375], "22": ["C", 0.295729], "23": ["C", 0.212692], "24": ["C", -0.046583], "25": ["C", -0.070462], "26": ["C", 0.520376], "27": ["C", 0.53511], "28": ["C", 0.615558], "29": ["C", 0.519872], "30": ["H", 0.108642], "31": ["H", 0.091206], "32": ["H", 0.048702], "33": ["H", 0.085463], "34": ["H", 0.072315], "35": ["H", 0.073581], "36": ["H", 0.058089], "37": ["H", 0.104895], "38": ["H", 0.027476], "39": ["H", 0.083475], "40": ["H", 0.046251], "41": ["H", -0.000485]}, "dipole_moment": {"X": 0.9216, "Y": -5.6098, "Z": 1.7536, "Tot": 5.9493}, "functional": "B3LYP", "basis": "6-31+G*", "phase": "gas", "tag": "lis", "state": "successful", "wall_time (s)": 63.88022542896215, "version": "0.0.1", "gauss_version": "ES64L-G16RevC.01", "last_updated": "2021-09-14 21:33:50.723000", "polarizability": 164.16, "fluorinated-solvent": "129699842", "run_ids": ["614114e464d6311ca30c5ec9", "61411531ead0c77c81ec12f0"]}