{"_id": "614124dd2cf0c7802975f193", "molecule": {"@module": "pymatgen.core.structure", "@class": "Molecule", "charge": 0, "spin_multiplicity": 1, "sites": [{"name": "F", "species": [{"element": "F", "occu": 1}], "xyz": [1.478176, -1.474368, 0.299291], "properties": {}}, {"name": "O", "species": [{"element": "O", "occu": 1}], "xyz": [3.209334, -0.427116, 1.360238], "properties": {}}, {"name": "C", "species": [{"element": "C", "occu": 1}], "xyz": [2.745545, 1.609736, 2.533121], "properties": {}}, {"name": "C", "species": [{"element": "C", "occu": 1}], "xyz": [2.477528, 0.109926, 2.475094], "properties": {}}, {"name": "C", "species": [{"element": "C", "occu": 1}], "xyz": [2.794106, -1.647254, 0.842698], "properties": {}}, {"name": "C", "species": [{"element": "C", "occu": 1}], "xyz": [2.320439, 2.379609, 1.271713], "properties": {}}, {"name": "C", "species": [{"element": "C", "occu": 1}], "xyz": [2.673467, -2.762789, 1.875218], "properties": {}}, {"name": "C", "species": [{"element": "C", "occu": 1}], "xyz": [3.711186, -1.973129, -0.321963], "properties": {}}, {"name": "C", "species": [{"element": "C", "occu": 1}], "xyz": [0.825505, 2.269066, 0.94456], "properties": {}}, {"name": "H", "species": [{"element": "H", "occu": 1}], "xyz": [2.213098, 2.006436, 3.410381], "properties": {}}, {"name": "H", "species": [{"element": "H", "occu": 1}], "xyz": [3.81751, 1.765968, 2.713899], "properties": {}}, {"name": "H", "species": [{"element": "H", "occu": 1}], "xyz": [1.408711, -0.092862, 2.34477], "properties": {}}, {"name": "H", "species": [{"element": "H", "occu": 1}], "xyz": [2.813249, -0.373772, 3.403164], "properties": {}}, {"name": "H", "species": [{"element": "H", "occu": 1}], "xyz": [2.587834, 3.436306, 1.40936], "properties": {}}, {"name": "H", "species": [{"element": "H", "occu": 1}], "xyz": [2.908011, 2.014638, 0.420783], "properties": {}}, {"name": "H", "species": [{"element": "H", "occu": 1}], "xyz": [2.38928, -3.696013, 1.380788], "properties": {}}, {"name": "H", "species": [{"element": "H", "occu": 1}], "xyz": [3.634257, -2.904803, 2.380984], "properties": {}}, {"name": "H", "species": [{"element": "H", "occu": 1}], "xyz": [1.909353, -2.525072, 2.620056], "properties": {}}, {"name": "H", "species": [{"element": "H", "occu": 1}], "xyz": [3.359638, -2.871851, -0.836469], "properties": {}}, {"name": "H", "species": [{"element": "H", "occu": 1}], "xyz": [3.714775, -1.13368, -1.022599], "properties": {}}, {"name": "H", "species": [{"element": "H", "occu": 1}], "xyz": [4.730638, -2.138834, 0.039942], "properties": {}}, {"name": "H", "species": [{"element": "H", "occu": 1}], "xyz": [0.207109, 2.572278, 1.800635], "properties": {}}, {"name": "H", "species": [{"element": "H", "occu": 1}], "xyz": [0.562354, 2.915811, 0.098967], "properties": {}}, {"name": "H", "species": [{"element": "H", "occu": 1}], "xyz": [0.548174, 1.244729, 0.671219], "properties": {}}]}, "smiles": "FC(OCCCC)(C)C", "inchi": "InChI=1S/C7H15FO/c1-4-5-6-9-7(2,3)8/h4-6H2,1-3H3", "formula_alphabetical": "C7 F1 H15 O1", "chemsys": "C-F-H-O", "energy": -450.875912893, "esp": {"1": ["F", -0.356214], "2": ["O", -0.482297], "3": ["C", -0.212396], "4": ["C", 0.210364], "5": ["C", 0.825535], "6": ["C", 0.291698], "7": ["C", -0.478827], "8": ["C", -0.586896], "9": ["C", -0.258932], "10": ["H", 0.045159], "11": ["H", 0.057189], "12": ["H", 0.018779], "13": ["H", 0.017165], "14": ["H", -0.0534], "15": ["H", -0.043184], "16": ["H", 0.124399], "17": ["H", 0.127041], "18": ["H", 0.115608], "19": ["H", 0.149927], "20": ["H", 0.172642], "21": ["H", 0.14371], "22": ["H", 0.048053], "23": ["H", 0.045324], "24": ["H", 0.079553]}, "dipole_moment": {"X": 0.9185, "Y": -0.6912, "Z": 1.341, "Tot": 1.7663}, "functional": "B3LYP", "basis": "6-31+G*", "phase": "gas", "tag": "lis", "state": "successful", "wall_time (s)": 9.611767765018158, "version": "0.0.1", "gauss_version": "ES64L-G16RevC.01", "last_updated": "2021-09-14 22:40:29.540000", "polarizability": 88.13, "fluorinated-solvent": "123662593", "run_ids": ["614124c73ba3a85e53b50c8f", "614124d72ebc9b6735cb939c"]}