{"_id": "61411dff03206a9fce7f26e6", "molecule": {"@module": "pymatgen.core.structure", "@class": "Molecule", "charge": 0, "spin_multiplicity": 1, "sites": [{"name": "F", "species": [{"element": "F", "occu": 1}], "xyz": [3.189976, -3.144646, 0.63758], "properties": {}}, {"name": "F", "species": [{"element": "F", "occu": 1}], "xyz": [4.036127, -2.763886, -1.877318], "properties": {}}, {"name": "F", "species": [{"element": "F", "occu": 1}], "xyz": [3.456379, -0.65937, -1.880954], "properties": {}}, {"name": "F", "species": [{"element": "F", "occu": 1}], "xyz": [5.041173, -1.362826, -0.554369], "properties": {}}, {"name": "F", "species": [{"element": "F", "occu": 1}], "xyz": [0.593226, -2.769841, 0.415388], "properties": {}}, {"name": "F", "species": [{"element": "F", "occu": 1}], "xyz": [0.801197, -1.069633, -0.933817], "properties": {}}, {"name": "F", "species": [{"element": "F", "occu": 1}], "xyz": [1.385567, -3.066279, -1.589564], "properties": {}}, {"name": "O", "species": [{"element": "O", "occu": 1}], "xyz": [2.876291, -0.895574, 0.860768], "properties": {}}, {"name": "C", "species": [{"element": "C", "occu": 1}], "xyz": [2.809212, -1.95543, 0.022682], "properties": {}}, {"name": "C", "species": [{"element": "C", "occu": 1}], "xyz": [2.559503, 0.246556, 2.959908], "properties": {}}, {"name": "C", "species": [{"element": "C", "occu": 1}], "xyz": [2.048464, -0.870658, 2.062461], "properties": {}}, {"name": "C", "species": [{"element": "C", "occu": 1}], "xyz": [2.238262, 1.676509, 2.491484], "properties": {}}, {"name": "C", "species": [{"element": "C", "occu": 1}], "xyz": [3.859112, -1.682239, -1.101767], "properties": {}}, {"name": "C", "species": [{"element": "C", "occu": 1}], "xyz": [1.370826, -2.225309, -0.543483], "properties": {}}, {"name": "C", "species": [{"element": "C", "occu": 1}], "xyz": [2.963821, 2.127124, 1.216007], "properties": {}}, {"name": "H", "species": [{"element": "H", "occu": 1}], "xyz": [2.101121, 0.083845, 3.945529], "properties": {}}, {"name": "H", "species": [{"element": "H", "occu": 1}], "xyz": [3.642464, 0.120404, 3.091554], "properties": {}}, {"name": "H", "species": [{"element": "H", "occu": 1}], "xyz": [1.006697, -0.699068, 1.769472], "properties": {}}, {"name": "H", "species": [{"element": "H", "occu": 1}], "xyz": [2.129033, -1.845132, 2.553108], "properties": {}}, {"name": "H", "species": [{"element": "H", "occu": 1}], "xyz": [1.151046, 1.768683, 2.350363], "properties": {}}, {"name": "H", "species": [{"element": "H", "occu": 1}], "xyz": [2.496764, 2.36163, 3.310309], "properties": {}}, {"name": "H", "species": [{"element": "H", "occu": 1}], "xyz": [2.655704, 1.543222, 0.344053], "properties": {}}, {"name": "H", "species": [{"element": "H", "occu": 1}], "xyz": [2.756048, 3.183788, 1.00911], "properties": {}}, {"name": "H", "species": [{"element": "H", "occu": 1}], "xyz": [4.049818, 2.01088, 1.321076], "properties": {}}]}, "smiles": "FC(OCCCC)(C(F)(F)F)C(F)(F)F", "inchi": "InChI=1S/C7H9F7O/c1-2-3-4-15-5(8,6(9,10)11)7(12,13)14/h2-4H2,1H3", "formula_alphabetical": "C7 F7 H9 O1", "chemsys": "C-F-H-O", "energy": -1046.32814338, "esp": {"1": ["F", -0.160456], "2": ["F", -0.168126], "3": ["F", -0.176461], "4": ["F", -0.163361], "5": ["F", -0.170893], "6": ["F", -0.150309], "7": ["F", -0.153306], "8": ["O", -0.246312], "9": ["C", 0.06458], "10": ["C", -0.207822], "11": ["C", 0.187004], "12": ["C", 0.160957], "13": ["C", 0.546862], "14": ["C", 0.486663], "15": ["C", -0.230879], "16": ["H", 0.048378], "17": ["H", 0.085934], "18": ["H", 0.045721], "19": ["H", 0.056946], "20": ["H", -0.01483], "21": ["H", -0.006206], "22": ["H", 0.056258], "23": ["H", 0.054076], "24": ["H", 0.055581]}, "dipole_moment": {"X": -0.9823, "Y": 1.2925, "Z": 2.555, "Tot": 3.0272}, "functional": "B3LYP", "basis": "6-31+G*", "phase": "gas", "tag": "lis", "state": "successful", "wall_time (s)": 15.932902691070922, "version": "0.0.1", "gauss_version": "ES64L-G16RevC.01", "last_updated": "2021-09-14 22:11:11.392000", "polarizability": 92.72, "fluorinated-solvent": "85880667", "run_ids": ["61411ddf73b08a2b2a2062f7", "61411dfad94e17a5d4d808e6"]}