{"_id": "614126815ca840e3929eb9e9", "molecule": {"@module": "pymatgen.core.structure", "@class": "Molecule", "charge": 0, "spin_multiplicity": 1, "sites": [{"name": "F", "species": [{"element": "F", "occu": 1}], "xyz": [1.24377, -0.855374, -0.095762], "properties": {}}, {"name": "F", "species": [{"element": "F", "occu": 1}], "xyz": [1.832682, 0.95673, 1.889923], "properties": {}}, {"name": "F", "species": [{"element": "F", "occu": 1}], "xyz": [2.799882, -0.975544, 2.153533], "properties": {}}, {"name": "F", "species": [{"element": "F", "occu": 1}], "xyz": [3.970949, 0.747671, 1.503809], "properties": {}}, {"name": "F", "species": [{"element": "F", "occu": 1}], "xyz": [3.049234, -1.483563, -1.990386], "properties": {}}, {"name": "F", "species": [{"element": "F", "occu": 1}], "xyz": [4.686459, -0.619903, -0.830036], "properties": {}}, {"name": "F", "species": [{"element": "F", "occu": 1}], "xyz": [3.574089, -2.325636, -0.051669], "properties": {}}, {"name": "F", "species": [{"element": "F", "occu": 1}], "xyz": [-0.351657, 1.360485, -0.743757], "properties": {}}, {"name": "F", "species": [{"element": "F", "occu": 1}], "xyz": [0.703236, 3.212052, -1.185131], "properties": {}}, {"name": "F", "species": [{"element": "F", "occu": 1}], "xyz": [-0.323568, 2.132793, -2.782876], "properties": {}}, {"name": "F", "species": [{"element": "F", "occu": 1}], "xyz": [3.696641, 1.003529, -3.159379], "properties": {}}, {"name": "F", "species": [{"element": "F", "occu": 1}], "xyz": [2.000085, 1.934585, -4.164257], "properties": {}}, {"name": "F", "species": [{"element": "F", "occu": 1}], "xyz": [3.060358, 3.002871, -2.582173], "properties": {}}, {"name": "O", "species": [{"element": "O", "occu": 1}], "xyz": [2.395184, 1.016163, -0.730234], "properties": {}}, {"name": "C", "species": [{"element": "C", "occu": 1}], "xyz": [2.451558, -0.202346, -0.081571], "properties": {}}, {"name": "C", "species": [{"element": "C", "occu": 1}], "xyz": [1.67284, 1.151038, -1.946759], "properties": {}}, {"name": "C", "species": [{"element": "C", "occu": 1}], "xyz": [2.778628, 0.139905, 1.408271], "properties": {}}, {"name": "C", "species": [{"element": "C", "occu": 1}], "xyz": [3.475539, -1.182549, -0.744026], "properties": {}}, {"name": "C", "species": [{"element": "C", "occu": 1}], "xyz": [0.407709, 1.991768, -1.658937], "properties": {}}, {"name": "C", "species": [{"element": "C", "occu": 1}], "xyz": [2.623614, 1.797056, -2.977485], "properties": {}}, {"name": "H", "species": [{"element": "H", "occu": 1}], "xyz": [1.344471, 0.191909, -2.351226], "properties": {}}]}, "smiles": "FC(OC(C(F)(F)F)C(F)(F)F)(C(F)(F)F)C(F)(F)F", "inchi": "InChI=1S/C6HF13O/c7-2(8,9)1(3(10,11)12)20-4(13,5(14,15)16)6(17,18)19/h1H", "formula_alphabetical": "C6 F13 H1 O1", "chemsys": "C-F-H-O", "energy": -1602.47781563, "esp": {"1": ["F", -0.086722], "2": ["F", -0.130559], "3": ["F", -0.148172], "4": ["F", -0.150555], "5": ["F", -0.143805], "6": ["F", -0.126012], "7": ["F", -0.144744], "8": ["F", -0.159708], "9": ["F", -0.155533], "10": ["F", -0.186239], "11": ["F", -0.167085], "12": ["F", -0.174273], "13": ["F", -0.150994], "14": ["O", -0.158796], "15": ["C", -0.078151], "16": ["C", -0.264476], "17": ["C", 0.534629], "18": ["C", 0.507934], "19": ["C", 0.582564], "20": ["C", 0.565134], "21": ["H", 0.235563]}, "dipole_moment": {"X": -0.2453, "Y": -1.0343, "Z": -0.5371, "Tot": 1.191}, "functional": "B3LYP", "basis": "6-31+G*", "phase": "gas", "tag": "lis", "state": "successful", "wall_time (s)": 23.42509012296796, "version": "0.0.1", "gauss_version": "ES64L-G16RevC.01", "last_updated": "2021-09-14 22:47:29.422000", "polarizability": 85.49, "fluorinated-solvent": "87600586", "run_ids": ["6141265b3d67759e80a3867e", "61412679872a467b15467bc6"]}