{"_id": "613a4b8775c30d4f67722c1e", "molecule": {"@module": "pymatgen.core.structure", "@class": "Molecule", "charge": 0, "spin_multiplicity": 1, "sites": [{"name": "F", "species": [{"element": "F", "occu": 1}], "xyz": [2.516999, -1.037427, -0.92239], "properties": {}}, {"name": "F", "species": [{"element": "F", "occu": 1}], "xyz": [4.7861, -0.022206, 1.5057], "properties": {}}, {"name": "F", "species": [{"element": "F", "occu": 1}], "xyz": [6.446691, 1.21667, 0.717111], "properties": {}}, {"name": "O", "species": [{"element": "O", "occu": 1}], "xyz": [2.461672, 2.326123, 0.303825], "properties": {}}, {"name": "C", "species": [{"element": "C", "occu": 1}], "xyz": [2.918586, 1.283742, -0.551472], "properties": {}}, {"name": "C", "species": [{"element": "C", "occu": 1}], "xyz": [4.452194, 1.141626, -0.549708], "properties": {}}, {"name": "C", "species": [{"element": "C", "occu": 1}], "xyz": [2.178734, 0.033029, -0.076952], "properties": {}}, {"name": "C", "species": [{"element": "C", "occu": 1}], "xyz": [5.072061, 1.149249, 0.831504], "properties": {}}, {"name": "C", "species": [{"element": "C", "occu": 1}], "xyz": [2.648743, 3.653529, -0.1895], "properties": {}}, {"name": "C", "species": [{"element": "C", "occu": 1}], "xyz": [1.990968, 4.61416, 0.786616], "properties": {}}, {"name": "H", "species": [{"element": "H", "occu": 1}], "xyz": [2.601642, 1.480977, -1.588519], "properties": {}}, {"name": "H", "species": [{"element": "H", "occu": 1}], "xyz": [4.736026, 0.213375, -1.057014], "properties": {}}, {"name": "H", "species": [{"element": "H", "occu": 1}], "xyz": [4.90187, 1.970611, -1.107198], "properties": {}}, {"name": "H", "species": [{"element": "H", "occu": 1}], "xyz": [1.098525, 0.190343, -0.146897], "properties": {}}, {"name": "H", "species": [{"element": "H", "occu": 1}], "xyz": [2.455264, -0.242489, 0.942908], "properties": {}}, {"name": "H", "species": [{"element": "H", "occu": 1}], "xyz": [4.749569, 1.976151, 1.468877], "properties": {}}, {"name": "H", "species": [{"element": "H", "occu": 1}], "xyz": [3.722346, 3.879248, -0.286208], "properties": {}}, {"name": "H", "species": [{"element": "H", "occu": 1}], "xyz": [2.19769, 3.739449, -1.19142], "properties": {}}, {"name": "H", "species": [{"element": "H", "occu": 1}], "xyz": [2.443534, 4.522281, 1.779877], "properties": {}}, {"name": "H", "species": [{"element": "H", "occu": 1}], "xyz": [2.114058, 5.647592, 0.442419], "properties": {}}, {"name": "H", "species": [{"element": "H", "occu": 1}], "xyz": [0.920921, 4.398596, 0.8744], "properties": {}}]}, "smiles": "FC[C@@H](OCC)CC(F)F", "inchi": "InChI=1S/C6H11F3O/c1-2-10-5(4-7)3-6(8)9/h5-6H,2-4H2,1H3/t5-/m0/s1", "formula_alphabetical": "C6 F3 H11 O1", "chemsys": "C-F-H-O", "energy": -610.03078165, "esp": {"1": ["F", -0.291119], "2": ["F", -0.269992], "3": ["F", -0.293856], "4": ["O", -0.552225], "5": ["C", 0.21646], "6": ["C", -0.325319], "7": ["C", 0.153356], "8": ["C", 0.556423], "9": ["C", 0.460707], "10": ["C", -0.385105], "11": ["H", 0.055008], "12": ["H", 0.146847], "13": ["H", 0.09184], "14": ["H", 0.067726], "15": ["H", 0.072575], "16": ["H", 0.051592], "17": ["H", -0.035878], "18": ["H", -0.031609], "19": ["H", 0.115508], "20": ["H", 0.08186], "21": ["H", 0.115201]}, "dipole_moment": {"X": -1.6244, "Y": 3.5689, "Z": -1.0621, "Tot": 4.0625}, "functional": "B3LYP", "basis": "6-31+G*", "phase": "gas", "tag": "lis", "state": "successful", "wall_time (s)": 15.890681979013607, "version": "0.0.1", "gauss_version": "ES64L-G16RevC.01", "last_updated": "2021-09-09 17:59:34.859000", "polarizability": 77.39, "fluorinated-solvent": "54212056", "run_ids": ["613a48f0402f9e504204ed25", "613a4b2413de8ba153040bdf"]}