{"_id": "61410ecce3366b2453668e85", "molecule": {"@module": "pymatgen.core.structure", "@class": "Molecule", "charge": 0, "spin_multiplicity": 1, "sites": [{"name": "F", "species": [{"element": "F", "occu": 1}], "xyz": [2.809909, -0.841457, -0.932438], "properties": {}}, {"name": "O", "species": [{"element": "O", "occu": 1}], "xyz": [2.630415, 2.338396, 0.701121], "properties": {}}, {"name": "C", "species": [{"element": "C", "occu": 1}], "xyz": [3.115994, 1.449929, -0.302901], "properties": {}}, {"name": "C", "species": [{"element": "C", "occu": 1}], "xyz": [2.463918, 0.112962, 0.041229], "properties": {}}, {"name": "C", "species": [{"element": "C", "occu": 1}], "xyz": [4.64115, 1.355837, -0.331344], "properties": {}}, {"name": "C", "species": [{"element": "C", "occu": 1}], "xyz": [2.787846, 3.726997, 0.421584], "properties": {}}, {"name": "C", "species": [{"element": "C", "occu": 1}], "xyz": [2.087262, 4.510232, 1.519947], "properties": {}}, {"name": "H", "species": [{"element": "H", "occu": 1}], "xyz": [2.743741, 1.76864, -1.291532], "properties": {}}, {"name": "H", "species": [{"element": "H", "occu": 1}], "xyz": [1.373755, 0.203852, 0.050619], "properties": {}}, {"name": "H", "species": [{"element": "H", "occu": 1}], "xyz": [2.816066, -0.255678, 1.010953], "properties": {}}, {"name": "H", "species": [{"element": "H", "occu": 1}], "xyz": [4.954995, 0.583466, -1.041432], "properties": {}}, {"name": "H", "species": [{"element": "H", "occu": 1}], "xyz": [5.096893, 2.303205, -0.637573], "properties": {}}, {"name": "H", "species": [{"element": "H", "occu": 1}], "xyz": [5.018755, 1.093678, 0.664282], "properties": {}}, {"name": "H", "species": [{"element": "H", "occu": 1}], "xyz": [3.855041, 3.993268, 0.382804], "properties": {}}, {"name": "H", "species": [{"element": "H", "occu": 1}], "xyz": [2.348861, 3.957511, -0.563788], "properties": {}}, {"name": "H", "species": [{"element": "H", "occu": 1}], "xyz": [2.525724, 4.275476, 2.495929], "properties": {}}, {"name": "H", "species": [{"element": "H", "occu": 1}], "xyz": [2.188203, 5.587526, 1.342397], "properties": {}}, {"name": "H", "species": [{"element": "H", "occu": 1}], "xyz": [1.021692, 4.258559, 1.551584], "properties": {}}]}, "smiles": "FC[C@@H](OCC)C", "inchi": "InChI=1S/C5H11FO/c1-3-7-5(2)4-6/h5H,3-4H2,1-2H3/t5-/m0/s1", "formula_alphabetical": "C5 F1 H11 O1", "chemsys": "C-F-H-O", "energy": -372.228011724, "esp": {"1": ["F", -0.293221], "2": ["O", -0.588529], "3": ["C", 0.434417], "4": ["C", 0.108337], "5": ["C", -0.413323], "6": ["C", 0.425268], "7": ["C", -0.305595], "8": ["H", -0.004493], "9": ["H", 0.061035], "10": ["H", 0.067667], "11": ["H", 0.102954], "12": ["H", 0.095892], "13": ["H", 0.128748], "14": ["H", -0.026275], "15": ["H", -0.040624], "16": ["H", 0.095935], "17": ["H", 0.059535], "18": ["H", 0.092272]}, "dipole_moment": {"X": 0.2424, "Y": 2.1039, "Z": 0.2401, "Tot": 2.1313}, "functional": "B3LYP", "basis": "6-31+G*", "phase": "gas", "tag": "lis", "state": "successful", "wall_time (s)": 6.672917254036292, "version": "0.0.1", "gauss_version": "ES64L-G16RevC.01", "last_updated": "2021-09-14 21:06:20.525000", "polarizability": 65.61, "fluorinated-solvent": "123529681", "run_ids": ["61410e6d84d4eddd0e1c2da3", "61410eaf5e011c7984194a8b"]}