{"_id": "61412e79ab2f19242b24cd56", "molecule": {"@module": "pymatgen.core.structure", "@class": "Molecule", "charge": 0, "spin_multiplicity": 1, "sites": [{"name": "F", "species": [{"element": "F", "occu": 1}], "xyz": [4.74868, -1.031197, 0.57765], "properties": {}}, {"name": "O", "species": [{"element": "O", "occu": 1}], "xyz": [2.235082, -1.038901, -1.985182], "properties": {}}, {"name": "C", "species": [{"element": "C", "occu": 1}], "xyz": [2.789757, -1.458799, -0.738389], "properties": {}}, {"name": "C", "species": [{"element": "C", "occu": 1}], "xyz": [0.800143, -1.002848, -2.05625], "properties": {}}, {"name": "C", "species": [{"element": "C", "occu": 1}], "xyz": [4.1105, -0.702367, -0.632962], "properties": {}}, {"name": "C", "species": [{"element": "C", "occu": 1}], "xyz": [2.974893, -2.973896, -0.69361], "properties": {}}, {"name": "C", "species": [{"element": "C", "occu": 1}], "xyz": [0.265693, 0.307295, -1.472566], "properties": {}}, {"name": "C", "species": [{"element": "C", "occu": 1}], "xyz": [0.434004, -1.175872, -3.525772], "properties": {}}, {"name": "H", "species": [{"element": "H", "occu": 1}], "xyz": [2.147976, -1.137901, 0.096439], "properties": {}}, {"name": "H", "species": [{"element": "H", "occu": 1}], "xyz": [0.394082, -1.851173, -1.482176], "properties": {}}, {"name": "H", "species": [{"element": "H", "occu": 1}], "xyz": [3.940817, 0.378595, -0.640326], "properties": {}}, {"name": "H", "species": [{"element": "H", "occu": 1}], "xyz": [4.783659, -0.979051, -1.451793], "properties": {}}, {"name": "H", "species": [{"element": "H", "occu": 1}], "xyz": [3.438008, -3.277483, 0.251409], "properties": {}}, {"name": "H", "species": [{"element": "H", "occu": 1}], "xyz": [2.010057, -3.484906, -0.786201], "properties": {}}, {"name": "H", "species": [{"element": "H", "occu": 1}], "xyz": [3.615985, -3.296594, -1.522206], "properties": {}}, {"name": "H", "species": [{"element": "H", "occu": 1}], "xyz": [0.648677, 1.157119, -2.049556], "properties": {}}, {"name": "H", "species": [{"element": "H", "occu": 1}], "xyz": [-0.830451, 0.327473, -1.505701], "properties": {}}, {"name": "H", "species": [{"element": "H", "occu": 1}], "xyz": [0.572362, 0.435957, -0.428274], "properties": {}}, {"name": "H", "species": [{"element": "H", "occu": 1}], "xyz": [0.817948, -2.127711, -3.907076], "properties": {}}, {"name": "H", "species": [{"element": "H", "occu": 1}], "xyz": [-0.653943, -1.154312, -3.658652], "properties": {}}, {"name": "H", "species": [{"element": "H", "occu": 1}], "xyz": [0.87302, -0.365607, -4.119617], "properties": {}}]}, "smiles": "FC[C@@H](OC(C)C)C", "inchi": "InChI=1S/C6H13FO/c1-5(2)8-6(3)4-7/h5-6H,4H2,1-3H3/t6-/m0/s1", "formula_alphabetical": "C6 F1 H13 O1", "chemsys": "C-F-H-O", "energy": -411.545527108, "esp": {"1": ["F", -0.313939], "2": ["O", -0.705391], "3": ["C", 0.612028], "4": ["C", 0.732038], "5": ["C", 0.140161], "6": ["C", -0.401353], "7": ["C", -0.549325], "8": ["C", -0.448903], "9": ["H", -0.076508], "10": ["H", -0.078803], "11": ["H", 0.039098], "12": ["H", 0.056127], "13": ["H", 0.08695], "14": ["H", 0.09303], "15": ["H", 0.105096], "16": ["H", 0.137976], "17": ["H", 0.116345], "18": ["H", 0.128932], "19": ["H", 0.110158], "20": ["H", 0.089844], "21": ["H", 0.126441]}, "dipole_moment": {"X": -2.063, "Y": -0.0432, "Z": -0.7313, "Tot": 2.1892}, "functional": "B3LYP", "basis": "6-31+G*", "phase": "gas", "tag": "lis", "state": "successful", "wall_time (s)": 7.5819334799889475, "version": "0.0.1", "gauss_version": "ES64L-G16RevC.01", "last_updated": "2021-09-14 23:21:29.388000", "polarizability": 77.4, "fluorinated-solvent": "155347515", "run_ids": ["61412e580482e3103e7e9118", "61412e72892be8edb3708501"]}