{"_id": "614127c2ec7dfcd3ac6383a7", "molecule": {"@module": "pymatgen.core.structure", "@class": "Molecule", "charge": 0, "spin_multiplicity": 1, "sites": [{"name": "F", "species": [{"element": "F", "occu": 1}], "xyz": [1.392786, -0.925057, -0.22669], "properties": {}}, {"name": "F", "species": [{"element": "F", "occu": 1}], "xyz": [-1.427811, 2.55976, 3.119264], "properties": {}}, {"name": "F", "species": [{"element": "F", "occu": 1}], "xyz": [-1.83373, 0.417735, 3.22689], "properties": {}}, {"name": "F", "species": [{"element": "F", "occu": 1}], "xyz": [-1.362208, 1.531652, 5.044977], "properties": {}}, {"name": "O", "species": [{"element": "O", "occu": 1}], "xyz": [2.217371, 0.733414, 2.061006], "properties": {}}, {"name": "C", "species": [{"element": "C", "occu": 1}], "xyz": [2.843849, 0.717436, 0.778511], "properties": {}}, {"name": "C", "species": [{"element": "C", "occu": 1}], "xyz": [4.313542, 1.102891, 0.98272], "properties": {}}, {"name": "C", "species": [{"element": "C", "occu": 1}], "xyz": [0.812827, 0.974077, 2.071152], "properties": {}}, {"name": "C", "species": [{"element": "C", "occu": 1}], "xyz": [0.422573, 1.118939, 3.540237], "properties": {}}, {"name": "C", "species": [{"element": "C", "occu": 1}], "xyz": [2.730209, -0.653714, 0.125802], "properties": {}}, {"name": "C", "species": [{"element": "C", "occu": 1}], "xyz": [4.480581, 2.515339, 1.552076], "properties": {}}, {"name": "C", "species": [{"element": "C", "occu": 1}], "xyz": [-1.047871, 1.405154, 3.730581], "properties": {}}, {"name": "H", "species": [{"element": "H", "occu": 1}], "xyz": [2.355811, 1.457426, 0.122156], "properties": {}}, {"name": "H", "species": [{"element": "H", "occu": 1}], "xyz": [4.773591, 0.370071, 1.659421], "properties": {}}, {"name": "H", "species": [{"element": "H", "occu": 1}], "xyz": [4.835312, 1.023687, 0.019636], "properties": {}}, {"name": "H", "species": [{"element": "H", "occu": 1}], "xyz": [0.583877, 1.898121, 1.519522], "properties": {}}, {"name": "H", "species": [{"element": "H", "occu": 1}], "xyz": [0.266621, 0.14917, 1.600935], "properties": {}}, {"name": "H", "species": [{"element": "H", "occu": 1}], "xyz": [0.656048, 0.198216, 4.083497], "properties": {}}, {"name": "H", "species": [{"element": "H", "occu": 1}], "xyz": [0.984107, 1.937423, 4.0009], "properties": {}}, {"name": "H", "species": [{"element": "H", "occu": 1}], "xyz": [3.048376, -1.437775, 0.821077], "properties": {}}, {"name": "H", "species": [{"element": "H", "occu": 1}], "xyz": [3.320218, -0.702949, -0.796327], "properties": {}}, {"name": "H", "species": [{"element": "H", "occu": 1}], "xyz": [3.97599, 2.603366, 2.519096], "properties": {}}, {"name": "H", "species": [{"element": "H", "occu": 1}], "xyz": [5.540184, 2.756277, 1.693734], "properties": {}}, {"name": "H", "species": [{"element": "H", "occu": 1}], "xyz": [4.05263, 3.265811, 0.875028], "properties": {}}]}, "smiles": "FC[C@@H](OCCC(F)(F)F)CC", "inchi": "InChI=1S/C7H12F4O/c1-2-6(5-8)12-4-3-7(9,10)11/h6H,2-5H2,1H3/t6-/m0/s1", "formula_alphabetical": "C7 F4 H12 O1", "chemsys": "C-F-H-O", "energy": -748.604023018, "esp": {"1": ["F", -0.258574], "2": ["F", -0.231909], "3": ["F", -0.224796], "4": ["F", -0.226248], "5": ["O", -0.448266], "6": ["C", 0.18048], "7": ["C", 0.021757], "8": ["C", 0.405934], "9": ["C", -0.397383], "10": ["C", 0.033236], "11": ["C", -0.127539], "12": ["C", 0.654521], "13": ["H", 0.049237], "14": ["H", 0.014638], "15": ["H", 0.007646], "16": ["H", -0.022859], "17": ["H", -0.000583], "18": ["H", 0.14323], "19": ["H", 0.145143], "20": ["H", 0.095896], "21": ["H", 0.069167], "22": ["H", 0.044686], "23": ["H", 0.038689], "24": ["H", 0.033897]}, "dipole_moment": {"X": 3.8244, "Y": 0.2638, "Z": -1.0333, "Tot": 3.9703}, "functional": "B3LYP", "basis": "6-31+G*", "phase": "gas", "tag": "lis", "state": "successful", "wall_time (s)": 11.778725704993121, "version": "0.0.1", "gauss_version": "ES64L-G16RevC.01", "last_updated": "2021-09-14 22:52:50.336000", "polarizability": 90.39, "fluorinated-solvent": "59489031", "run_ids": ["614127a7119b7e2550ff1926", "614127b97e6ef760ba41d279"]}