{"_id": "61411d7795448ea37de0f1c2", "molecule": {"@module": "pymatgen.core.structure", "@class": "Molecule", "charge": 0, "spin_multiplicity": 1, "sites": [{"name": "F", "species": [{"element": "F", "occu": 1}], "xyz": [2.834124, 0.666291, -0.938311], "properties": {}}, {"name": "O", "species": [{"element": "O", "occu": 1}], "xyz": [2.554536, -1.160658, 2.124124], "properties": {}}, {"name": "C", "species": [{"element": "C", "occu": 1}], "xyz": [3.106432, -0.132195, 1.305822], "properties": {}}, {"name": "C", "species": [{"element": "C", "occu": 1}], "xyz": [4.639381, -0.188334, 1.198602], "properties": {}}, {"name": "C", "species": [{"element": "C", "occu": 1}], "xyz": [2.81633, -1.043563, 3.519361], "properties": {}}, {"name": "C", "species": [{"element": "C", "occu": 1}], "xyz": [2.396221, -0.318277, -0.033907], "properties": {}}, {"name": "C", "species": [{"element": "C", "occu": 1}], "xyz": [2.070919, -2.157909, 4.244002], "properties": {}}, {"name": "C", "species": [{"element": "C", "occu": 1}], "xyz": [5.19171, -1.563918, 0.807099], "properties": {}}, {"name": "C", "species": [{"element": "C", "occu": 1}], "xyz": [2.5515, -3.557244, 3.842799], "properties": {}}, {"name": "H", "species": [{"element": "H", "occu": 1}], "xyz": [2.817421, 0.854329, 1.708102], "properties": {}}, {"name": "H", "species": [{"element": "H", "occu": 1}], "xyz": [4.946084, 0.5711, 0.468874], "properties": {}}, {"name": "H", "species": [{"element": "H", "occu": 1}], "xyz": [5.06961, 0.121477, 2.159757], "properties": {}}, {"name": "H", "species": [{"element": "H", "occu": 1}], "xyz": [3.897441, -1.126648, 3.715421], "properties": {}}, {"name": "H", "species": [{"element": "H", "occu": 1}], "xyz": [2.484074, -0.054155, 3.876257], "properties": {}}, {"name": "H", "species": [{"element": "H", "occu": 1}], "xyz": [1.314876, -0.205907, 0.087493], "properties": {}}, {"name": "H", "species": [{"element": "H", "occu": 1}], "xyz": [2.616906, -1.296418, -0.471614], "properties": {}}, {"name": "H", "species": [{"element": "H", "occu": 1}], "xyz": [2.204527, -2.006905, 5.324265], "properties": {}}, {"name": "H", "species": [{"element": "H", "occu": 1}], "xyz": [0.998043, -2.053287, 4.03578], "properties": {}}, {"name": "H", "species": [{"element": "H", "occu": 1}], "xyz": [4.877564, -1.85616, -0.201572], "properties": {}}, {"name": "H", "species": [{"element": "H", "occu": 1}], "xyz": [6.287576, -1.555843, 0.819388], "properties": {}}, {"name": "H", "species": [{"element": "H", "occu": 1}], "xyz": [4.846297, -2.337928, 1.501103], "properties": {}}, {"name": "H", "species": [{"element": "H", "occu": 1}], "xyz": [3.619793, -3.683479, 4.063504], "properties": {}}, {"name": "H", "species": [{"element": "H", "occu": 1}], "xyz": [2.00257, -4.334696, 4.386967], "properties": {}}, {"name": "H", "species": [{"element": "H", "occu": 1}], "xyz": [2.407955, -3.723009, 2.770215], "properties": {}}]}, "smiles": "FC[C@@H](OCCC)CC", "inchi": "InChI=1S/C7H15FO/c1-3-5-9-7(4-2)6-8/h7H,3-6H2,1-2H3/t7-/m0/s1", "formula_alphabetical": "C7 F1 H15 O1", "chemsys": "C-F-H-O", "energy": -450.854635834, "esp": {"1": ["F", -0.290101], "2": ["O", -0.427373], "3": ["C", 0.133803], "4": ["C", 0.126402], "5": ["C", 0.089152], "6": ["C", 0.138043], "7": ["C", 0.065598], "8": ["C", -0.167], "9": ["C", -0.153649], "10": ["H", 0.043354], "11": ["H", -0.005842], "12": ["H", -0.028914], "13": ["H", 0.051795], "14": ["H", 0.023686], "15": ["H", 0.063351], "16": ["H", 0.06565], "17": ["H", -0.009411], "18": ["H", 0.023256], "19": ["H", 0.049614], "20": ["H", 0.039308], "21": ["H", 0.044303], "22": ["H", 0.045835], "23": ["H", 0.037967], "24": ["H", 0.041173]}, "dipole_moment": {"X": 0.252, "Y": -0.5014, "Z": 2.0217, "Tot": 2.0981}, "functional": "B3LYP", "basis": "6-31+G*", "phase": "gas", "tag": "lis", "state": "successful", "wall_time (s)": 9.290721655939706, "version": "0.0.1", "gauss_version": "ES64L-G16RevC.01", "last_updated": "2021-09-14 22:08:55.420000", "polarizability": 87.95, "fluorinated-solvent": "152812285", "run_ids": ["61411d57078b0cfa7c3cec4a", "61411d72adc55b0df0a884ef"]}