{"_id": "61410d80f09b5995520c48a8", "molecule": {"@module": "pymatgen.core.structure", "@class": "Molecule", "charge": 0, "spin_multiplicity": 1, "sites": [{"name": "F", "species": [{"element": "F", "occu": 1}], "xyz": [5.046996, -0.192872, 0.753354], "properties": {}}, {"name": "O", "species": [{"element": "O", "occu": 1}], "xyz": [2.341638, -2.410159, -0.011682], "properties": {}}, {"name": "C", "species": [{"element": "C", "occu": 1}], "xyz": [2.911623, -1.27476, 0.635093], "properties": {}}, {"name": "C", "species": [{"element": "C", "occu": 1}], "xyz": [0.923453, -2.388819, -0.151918], "properties": {}}, {"name": "C", "species": [{"element": "C", "occu": 1}], "xyz": [0.492558, -3.64425, -0.900723], "properties": {}}, {"name": "C", "species": [{"element": "C", "occu": 1}], "xyz": [4.38038, -1.310672, 0.219814], "properties": {}}, {"name": "C", "species": [{"element": "C", "occu": 1}], "xyz": [2.740898, -1.311171, 2.153271], "properties": {}}, {"name": "C", "species": [{"element": "C", "occu": 1}], "xyz": [0.809366, -4.936339, -0.139288], "properties": {}}, {"name": "H", "species": [{"element": "H", "occu": 1}], "xyz": [2.462986, -0.351638, 0.23044], "properties": {}}, {"name": "H", "species": [{"element": "H", "occu": 1}], "xyz": [0.439878, -2.356451, 0.837617], "properties": {}}, {"name": "H", "species": [{"element": "H", "occu": 1}], "xyz": [0.621612, -1.483512, -0.704968], "properties": {}}, {"name": "H", "species": [{"element": "H", "occu": 1}], "xyz": [-0.587756, -3.570416, -1.088225], "properties": {}}, {"name": "H", "species": [{"element": "H", "occu": 1}], "xyz": [0.987614, -3.652566, -1.880702], "properties": {}}, {"name": "H", "species": [{"element": "H", "occu": 1}], "xyz": [4.477105, -1.271703, -0.869232], "properties": {}}, {"name": "H", "species": [{"element": "H", "occu": 1}], "xyz": [4.873042, -2.209832, 0.606112], "properties": {}}, {"name": "H", "species": [{"element": "H", "occu": 1}], "xyz": [3.275794, -0.472627, 2.611497], "properties": {}}, {"name": "H", "species": [{"element": "H", "occu": 1}], "xyz": [1.686582, -1.239341, 2.439865], "properties": {}}, {"name": "H", "species": [{"element": "H", "occu": 1}], "xyz": [3.146163, -2.248572, 2.552515], "properties": {}}, {"name": "H", "species": [{"element": "H", "occu": 1}], "xyz": [0.304963, -4.950856, 0.835981], "properties": {}}, {"name": "H", "species": [{"element": "H", "occu": 1}], "xyz": [0.477973, -5.817103, -0.701758], "properties": {}}, {"name": "H", "species": [{"element": "H", "occu": 1}], "xyz": [1.8858, -5.027289, 0.037949], "properties": {}}]}, "smiles": "FC[C@@H](OCCC)C", "inchi": "InChI=1S/C6H13FO/c1-3-4-8-6(2)5-7/h6H,3-5H2,1-2H3/t6-/m0/s1", "formula_alphabetical": "C6 F1 H13 O1", "chemsys": "C-F-H-O", "energy": -411.542245648, "esp": {"1": ["F", -0.291926], "2": ["O", -0.537986], "3": ["C", 0.463061], "4": ["C", 0.14708], "5": ["C", 0.156086], "6": ["C", 0.096017], "7": ["C", -0.409427], "8": ["C", -0.181453], "9": ["H", -0.007498], "10": ["H", 0.02128], "11": ["H", -0.000941], "12": ["H", -0.035434], "13": ["H", -0.000593], "14": ["H", 0.057486], "15": ["H", 0.070672], "16": ["H", 0.097913], "17": ["H", 0.100108], "18": ["H", 0.122307], "19": ["H", 0.04452], "20": ["H", 0.037229], "21": ["H", 0.051501]}, "dipole_moment": {"X": -1.9418, "Y": -0.6621, "Z": -0.2351, "Tot": 2.0651}, "functional": "B3LYP", "basis": "6-31+G*", "phase": "gas", "tag": "lis", "state": "successful", "wall_time (s)": 8.265132801025175, "version": "0.0.1", "gauss_version": "ES64L-G16RevC.01", "last_updated": "2021-09-14 21:00:48.247000", "polarizability": 77.03, "fluorinated-solvent": "141179981", "run_ids": ["61410d62064e7171457cc929", "61410d7733d146c90f87013f"]}