{"_id": "613a4e5f35e7bd6a2c3dd182", "molecule": {"@module": "pymatgen.core.structure", "@class": "Molecule", "charge": 0, "spin_multiplicity": 1, "sites": [{"name": "F", "species": [{"element": "F", "occu": 1}], "xyz": [2.980965, -0.36419, -1.544247], "properties": {}}, {"name": "F", "species": [{"element": "F", "occu": 1}], "xyz": [4.759343, 0.716041, 2.674338], "properties": {}}, {"name": "F", "species": [{"element": "F", "occu": 1}], "xyz": [6.509308, 0.506488, 1.384002], "properties": {}}, {"name": "F", "species": [{"element": "F", "occu": 1}], "xyz": [4.771206, 1.630837, 0.693772], "properties": {}}, {"name": "O", "species": [{"element": "O", "occu": 1}], "xyz": [2.630756, -2.183622, 0.67313], "properties": {}}, {"name": "C", "species": [{"element": "C", "occu": 1}], "xyz": [3.044756, -0.832533, 0.81638], "properties": {}}, {"name": "C", "species": [{"element": "C", "occu": 1}], "xyz": [4.587036, -0.753144, 0.809066], "properties": {}}, {"name": "C", "species": [{"element": "C", "occu": 1}], "xyz": [2.402151, -0.033044, -0.30936], "properties": {}}, {"name": "C", "species": [{"element": "C", "occu": 1}], "xyz": [5.153642, 0.523806, 1.384338], "properties": {}}, {"name": "C", "species": [{"element": "C", "occu": 1}], "xyz": [2.592107, -2.938433, 1.88421], "properties": {}}, {"name": "C", "species": [{"element": "C", "occu": 1}], "xyz": [2.138982, -4.348024, 1.544021], "properties": {}}, {"name": "H", "species": [{"element": "H", "occu": 1}], "xyz": [2.654991, -0.420346, 1.762276], "properties": {}}, {"name": "H", "species": [{"element": "H", "occu": 1}], "xyz": [4.996128, -1.567492, 1.412837], "properties": {}}, {"name": "H", "species": [{"element": "H", "occu": 1}], "xyz": [4.961366, -0.868499, -0.211161], "properties": {}}, {"name": "H", "species": [{"element": "H", "occu": 1}], "xyz": [2.545936, 1.040692, -0.159624], "properties": {}}, {"name": "H", "species": [{"element": "H", "occu": 1}], "xyz": [1.336974, -0.274928, -0.369531], "properties": {}}, {"name": "H", "species": [{"element": "H", "occu": 1}], "xyz": [3.585366, -2.959139, 2.360817], "properties": {}}, {"name": "H", "species": [{"element": "H", "occu": 1}], "xyz": [1.895212, -2.460622, 2.592538], "properties": {}}, {"name": "H", "species": [{"element": "H", "occu": 1}], "xyz": [2.840595, -4.818002, 0.846795], "properties": {}}, {"name": "H", "species": [{"element": "H", "occu": 1}], "xyz": [2.085858, -4.958633, 2.452872], "properties": {}}, {"name": "H", "species": [{"element": "H", "occu": 1}], "xyz": [1.149171, -4.329223, 1.075875], "properties": {}}]}, "smiles": "FC[C@@H](OCC)CC(F)(F)F", "inchi": "InChI=1S/C6H10F4O/c1-2-11-5(4-7)3-6(8,9)10/h5H,2-4H2,1H3/t5-/m0/s1", "formula_alphabetical": "C6 F4 H10 O1", "chemsys": "C-F-H-O", "energy": -709.286225746, "esp": {"1": ["F", -0.257853], "2": ["F", -0.220603], "3": ["F", -0.211576], "4": ["F", -0.189771], "5": ["O", -0.46381], "6": ["C", 0.346329], "7": ["C", -0.484325], "8": ["C", 0.092609], "9": ["C", 0.599403], "10": ["C", 0.368081], "11": ["C", -0.336564], "12": ["H", 0.002408], "13": ["H", 0.192653], "14": ["H", 0.193995], "15": ["H", 0.062227], "16": ["H", 0.070449], "17": ["H", -0.030018], "18": ["H", -0.017477], "19": ["H", 0.104263], "20": ["H", 0.079715], "21": ["H", 0.099864]}, "dipole_moment": {"X": -1.5475, "Y": -1.5355, "Z": 2.0086, "Tot": 2.9643}, "functional": "B3LYP", "basis": "6-31+G*", "phase": "gas", "tag": "lis", "state": "successful", "wall_time (s)": 9.55656775191892, "version": "0.0.1", "gauss_version": "ES64L-G16RevC.01", "last_updated": "2021-09-09 18:11:43.541000", "polarizability": 78.71, "fluorinated-solvent": "54089680", "run_ids": ["613a4a2d90c545d986cf7da2", "613a4e5a13473205bfed12cb"]}