{"_id": "613a4b95239b636dc2112152", "molecule": {"@module": "pymatgen.core.structure", "@class": "Molecule", "charge": 0, "spin_multiplicity": 1, "sites": [{"name": "F", "species": [{"element": "F", "occu": 1}], "xyz": [1.239295, -2.060791, 1.360274], "properties": {}}, {"name": "O", "species": [{"element": "O", "occu": 1}], "xyz": [2.805449, -1.352061, -2.542415], "properties": {}}, {"name": "C", "species": [{"element": "C", "occu": 1}], "xyz": [2.992763, -1.387495, -0.154562], "properties": {}}, {"name": "C", "species": [{"element": "C", "occu": 1}], "xyz": [2.282209, -1.972012, -1.378015], "properties": {}}, {"name": "C", "species": [{"element": "C", "occu": 1}], "xyz": [2.624852, -2.164538, 1.102401], "properties": {}}, {"name": "C", "species": [{"element": "C", "occu": 1}], "xyz": [2.720979, 0.115176, -0.000299], "properties": {}}, {"name": "C", "species": [{"element": "C", "occu": 1}], "xyz": [2.172577, -1.774014, -3.743505], "properties": {}}, {"name": "C", "species": [{"element": "C", "occu": 1}], "xyz": [2.816977, -1.04097, -4.908846], "properties": {}}, {"name": "H", "species": [{"element": "H", "occu": 1}], "xyz": [4.073011, -1.542185, -0.302252], "properties": {}}, {"name": "H", "species": [{"element": "H", "occu": 1}], "xyz": [2.441634, -3.063964, -1.428823], "properties": {}}, {"name": "H", "species": [{"element": "H", "occu": 1}], "xyz": [1.196622, -1.79625, -1.304487], "properties": {}}, {"name": "H", "species": [{"element": "H", "occu": 1}], "xyz": [3.141079, -1.765395, 1.982926], "properties": {}}, {"name": "H", "species": [{"element": "H", "occu": 1}], "xyz": [2.844937, -3.234446, 1.003546], "properties": {}}, {"name": "H", "species": [{"element": "H", "occu": 1}], "xyz": [3.287565, 0.532671, 0.841214], "properties": {}}, {"name": "H", "species": [{"element": "H", "occu": 1}], "xyz": [3.009311, 0.647601, -0.911005], "properties": {}}, {"name": "H", "species": [{"element": "H", "occu": 1}], "xyz": [1.655914, 0.29644, 0.184552], "properties": {}}, {"name": "H", "species": [{"element": "H", "occu": 1}], "xyz": [2.282651, -2.866151, -3.861004], "properties": {}}, {"name": "H", "species": [{"element": "H", "occu": 1}], "xyz": [1.092303, -1.554358, -3.69342], "properties": {}}, {"name": "H", "species": [{"element": "H", "occu": 1}], "xyz": [3.887669, -1.267137, -4.959085], "properties": {}}, {"name": "H", "species": [{"element": "H", "occu": 1}], "xyz": [2.351233, -1.343282, -5.854326], "properties": {}}, {"name": "H", "species": [{"element": "H", "occu": 1}], "xyz": [2.698921, 0.041874, -4.792318], "properties": {}}]}, "smiles": "FC[C@@H](COCC)C", "inchi": "InChI=1S/C6H13FO/c1-3-8-5-6(2)4-7/h6H,3-5H2,1-2H3/t6-/m0/s1", "formula_alphabetical": "C6 F1 H13 O1", "chemsys": "C-F-H-O", "energy": -411.541823301, "esp": {"1": ["F", -0.293576], "2": ["O", -0.433655], "3": ["C", 0.247501], "4": ["C", 0.096282], "5": ["C", 0.085179], "6": ["C", -0.204028], "7": ["C", 0.362759], "8": ["C", -0.297512], "9": ["H", -0.038775], "10": ["H", 0.013541], "11": ["H", 0.026016], "12": ["H", 0.059183], "13": ["H", 0.040923], "14": ["H", 0.038462], "15": ["H", 0.047476], "16": ["H", 0.067849], "17": ["H", -0.028798], "18": ["H", -0.025194], "19": ["H", 0.082025], "20": ["H", 0.066442], "21": ["H", 0.087899]}, "dipole_moment": {"X": 1.028, "Y": -0.7017, "Z": -0.8151, "Tot": 1.4878}, "functional": "B3LYP", "basis": "6-31+G*", "phase": "gas", "tag": "lis", "state": "successful", "wall_time (s)": 7.451421892968938, "version": "0.0.1", "gauss_version": "ES64L-G16RevC.01", "last_updated": "2021-09-09 17:59:49.416000", "polarizability": 77.46, "fluorinated-solvent": "22002896", "run_ids": ["613a491a7fdab9dd6c6053c6", "613a4b2d3a0e7e72bef947e6"]}