{"_id": "614119f5e3461b1fb359b88c", "molecule": {"@module": "pymatgen.core.structure", "@class": "Molecule", "charge": 0, "spin_multiplicity": 1, "sites": [{"name": "F", "species": [{"element": "F", "occu": 1}], "xyz": [1.158088, 0.434054, 0.387414], "properties": {}}, {"name": "O", "species": [{"element": "O", "occu": 1}], "xyz": [4.814042, -1.073839, 4.259221], "properties": {}}, {"name": "C", "species": [{"element": "C", "occu": 1}], "xyz": [5.335442, -1.671177, 5.444089], "properties": {}}, {"name": "C", "species": [{"element": "C", "occu": 1}], "xyz": [6.270607, -0.672316, 6.10439], "properties": {}}, {"name": "C", "species": [{"element": "C", "occu": 1}], "xyz": [3.9215, -1.931767, 3.562521], "properties": {}}, {"name": "C", "species": [{"element": "C", "occu": 1}], "xyz": [3.410236, -1.263793, 2.36924], "properties": {}}, {"name": "C", "species": [{"element": "C", "occu": 1}], "xyz": [2.457556, -0.072518, 0.182942], "properties": {}}, {"name": "C", "species": [{"element": "C", "occu": 1}], "xyz": [2.965722, -0.727509, 1.379636], "properties": {}}, {"name": "H", "species": [{"element": "H", "occu": 1}], "xyz": [4.50746, -1.939823, 6.122398], "properties": {}}, {"name": "H", "species": [{"element": "H", "occu": 1}], "xyz": [5.872465, -2.601073, 5.189013], "properties": {}}, {"name": "H", "species": [{"element": "H", "occu": 1}], "xyz": [5.731067, 0.246053, 6.358937], "properties": {}}, {"name": "H", "species": [{"element": "H", "occu": 1}], "xyz": [6.692372, -1.096996, 7.022989], "properties": {}}, {"name": "H", "species": [{"element": "H", "occu": 1}], "xyz": [7.092906, -0.413499, 5.42891], "properties": {}}, {"name": "H", "species": [{"element": "H", "occu": 1}], "xyz": [3.073632, -2.215277, 4.210481], "properties": {}}, {"name": "H", "species": [{"element": "H", "occu": 1}], "xyz": [4.433993, -2.866199, 3.273737], "properties": {}}, {"name": "H", "species": [{"element": "H", "occu": 1}], "xyz": [2.398209, -0.771515, -0.659314], "properties": {}}, {"name": "H", "species": [{"element": "H", "occu": 1}], "xyz": [3.09257, 0.77542, -0.098516], "properties": {}}]}, "smiles": "FCC#CCOCC", "inchi": "InChI=1S/C6H9FO/c1-2-8-6-4-3-5-7/h2,5-6H2,1H3", "formula_alphabetical": "C6 F1 H9 O1", "chemsys": "C-F-H-O", "energy": -409.052148149, "esp": {"1": ["F", -0.285694], "2": ["O", -0.460689], "3": ["C", 0.362549], "4": ["C", -0.265149], "5": ["C", 0.432555], "6": ["C", -0.228689], "7": ["C", 0.297427], "8": ["C", -0.092087], "9": ["H", -0.037457], "10": ["H", -0.031413], "11": ["H", 0.0831], "12": ["H", 0.06054], "13": ["H", 0.076995], "14": ["H", 0.008664], "15": ["H", -0.014939], "16": ["H", 0.041822], "17": ["H", 0.052467]}, "dipole_moment": {"X": 1.9215, "Y": -2.1197, "Z": 0.7133, "Tot": 2.9485}, "functional": "B3LYP", "basis": "6-31+G*", "phase": "gas", "tag": "lis", "state": "successful", "wall_time (s)": 6.688550424994901, "version": "0.0.1", "gauss_version": "ES64L-G16RevC.01", "last_updated": "2021-09-14 21:53:56.724000", "polarizability": 77.2, "fluorinated-solvent": "90696389", "run_ids": ["614119d8d01dd90bed20d3e5", "614119e50880d25897f7ad99"]}