{"_id": "613a539d2f1983637db17e6b", "molecule": {"@module": "pymatgen.core.structure", "@class": "Molecule", "charge": 0, "spin_multiplicity": 1, "sites": [{"name": "F", "species": [{"element": "F", "occu": 1}], "xyz": [1.612118, 4.628904, -4.63154], "properties": {}}, {"name": "O", "species": [{"element": "O", "occu": 1}], "xyz": [2.482523, 2.572997, -1.022887], "properties": {}}, {"name": "C", "species": [{"element": "C", "occu": 1}], "xyz": [0.31755, 2.543529, 0.241786], "properties": {}}, {"name": "C", "species": [{"element": "C", "occu": 1}], "xyz": [1.84466, 2.691711, 0.247079], "properties": {}}, {"name": "C", "species": [{"element": "C", "occu": 1}], "xyz": [-0.210126, 1.189333, -0.263052], "properties": {}}, {"name": "C", "species": [{"element": "C", "occu": 1}], "xyz": [2.246843, 3.654401, -1.911806], "properties": {}}, {"name": "C", "species": [{"element": "C", "occu": 1}], "xyz": [3.074354, 3.409222, -3.168233], "properties": {}}, {"name": "C", "species": [{"element": "C", "occu": 1}], "xyz": [-0.129058, 0.996561, -1.78417], "properties": {}}, {"name": "C", "species": [{"element": "C", "occu": 1}], "xyz": [2.948557, 4.527404, -4.185782], "properties": {}}, {"name": "H", "species": [{"element": "H", "occu": 1}], "xyz": [-0.004467, 2.691686, 1.283255], "properties": {}}, {"name": "H", "species": [{"element": "H", "occu": 1}], "xyz": [-0.143408, 3.359435, -0.332692], "properties": {}}, {"name": "H", "species": [{"element": "H", "occu": 1}], "xyz": [2.287518, 1.893977, 0.854744], "properties": {}}, {"name": "H", "species": [{"element": "H", "occu": 1}], "xyz": [2.121042, 3.65738, 0.705904], "properties": {}}, {"name": "H", "species": [{"element": "H", "occu": 1}], "xyz": [0.340637, 0.380783, 0.240357], "properties": {}}, {"name": "H", "species": [{"element": "H", "occu": 1}], "xyz": [-1.258027, 1.087655, 0.052128], "properties": {}}, {"name": "H", "species": [{"element": "H", "occu": 1}], "xyz": [2.542355, 4.606742, -1.435143], "properties": {}}, {"name": "H", "species": [{"element": "H", "occu": 1}], "xyz": [1.183171, 3.727856, -2.175259], "properties": {}}, {"name": "H", "species": [{"element": "H", "occu": 1}], "xyz": [2.767113, 2.460871, -3.625085], "properties": {}}, {"name": "H", "species": [{"element": "H", "occu": 1}], "xyz": [4.132102, 3.308591, -2.8894], "properties": {}}, {"name": "H", "species": [{"element": "H", "occu": 1}], "xyz": [0.908423, 1.010146, -2.129367], "properties": {}}, {"name": "H", "species": [{"element": "H", "occu": 1}], "xyz": [-0.579268, 0.041441, -2.081566], "properties": {}}, {"name": "H", "species": [{"element": "H", "occu": 1}], "xyz": [-0.670143, 1.795319, -2.308715], "properties": {}}, {"name": "H", "species": [{"element": "H", "occu": 1}], "xyz": [3.566169, 4.339741, -5.070641], "properties": {}}, {"name": "H", "species": [{"element": "H", "occu": 1}], "xyz": [3.212124, 5.503667, -3.760323], "properties": {}}]}, "smiles": "FCCCOCCCC", "inchi": "InChI=1S/C7H15FO/c1-2-3-6-9-7-4-5-8/h2-7H2,1H3", "formula_alphabetical": "C7 F1 H15 O1", "chemsys": "C-F-H-O", "energy": -450.850480561, "esp": {"1": ["F", -0.307499], "2": ["O", -0.463562], "3": ["C", -0.180468], "4": ["C", 0.113645], "5": ["C", 0.238623], "6": ["C", 0.291374], "7": ["C", -0.180156], "8": ["C", -0.228584], "9": ["C", 0.221788], "10": ["H", 0.033143], "11": ["H", 0.053774], "12": ["H", 0.071129], "13": ["H", 0.020785], "14": ["H", -0.031005], "15": ["H", -0.043775], "16": ["H", 0.013676], "17": ["H", 0.005391], "18": ["H", 0.089341], "19": ["H", 0.052951], "20": ["H", 0.070918], "21": ["H", 0.032921], "22": ["H", 0.062263], "23": ["H", 0.04365], "24": ["H", 0.019676]}, "dipole_moment": {"X": 0.9988, "Y": 0.579, "Z": 1.1213, "Tot": 1.6093}, "functional": "B3LYP", "basis": "6-31+G*", "phase": "gas", "tag": "lis", "state": "successful", "wall_time (s)": 8.948565417085774, "version": "0.0.1", "gauss_version": "ES64L-G16RevC.01", "last_updated": "2021-09-09 18:34:05.486000", "polarizability": 88.23, "fluorinated-solvent": "18335870", "run_ids": ["613a4ac339c3d5f9fc137d3b", "613a5397c41ef5ad1b67cb4c"]}