{"_id": "61411b9220f0f76435f2b5a4", "molecule": {"@module": "pymatgen.core.structure", "@class": "Molecule", "charge": 0, "spin_multiplicity": 1, "sites": [{"name": "F", "species": [{"element": "F", "occu": 1}], "xyz": [0.275701, 0.161438, 0.500181], "properties": {}}, {"name": "O", "species": [{"element": "O", "occu": 1}], "xyz": [4.030883, -1.1031, 2.621537], "properties": {}}, {"name": "C", "species": [{"element": "C", "occu": 1}], "xyz": [2.29213, 0.542248, 2.62752], "properties": {}}, {"name": "C", "species": [{"element": "C", "occu": 1}], "xyz": [2.675334, -0.886742, 2.997437], "properties": {}}, {"name": "C", "species": [{"element": "C", "occu": 1}], "xyz": [2.480533, 0.879812, 1.139375], "properties": {}}, {"name": "C", "species": [{"element": "C", "occu": 1}], "xyz": [4.566581, -2.366703, 3.004779], "properties": {}}, {"name": "C", "species": [{"element": "C", "occu": 1}], "xyz": [4.067065, -3.539187, 2.152608], "properties": {}}, {"name": "C", "species": [{"element": "C", "occu": 1}], "xyz": [1.650383, 0.030475, 0.193944], "properties": {}}, {"name": "C", "species": [{"element": "C", "occu": 1}], "xyz": [4.368257, -3.359349, 0.661095], "properties": {}}, {"name": "H", "species": [{"element": "H", "occu": 1}], "xyz": [2.90164, 1.232736, 3.223723], "properties": {}}, {"name": "H", "species": [{"element": "H", "occu": 1}], "xyz": [1.244778, 0.701896, 2.91224], "properties": {}}, {"name": "H", "species": [{"element": "H", "occu": 1}], "xyz": [2.558926, -1.038437, 4.083989], "properties": {}}, {"name": "H", "species": [{"element": "H", "occu": 1}], "xyz": [2.010675, -1.607077, 2.49583], "properties": {}}, {"name": "H", "species": [{"element": "H", "occu": 1}], "xyz": [3.534816, 0.746787, 0.864627], "properties": {}}, {"name": "H", "species": [{"element": "H", "occu": 1}], "xyz": [2.230254, 1.935527, 0.973913], "properties": {}}, {"name": "H", "species": [{"element": "H", "occu": 1}], "xyz": [5.651864, -2.260977, 2.889326], "properties": {}}, {"name": "H", "species": [{"element": "H", "occu": 1}], "xyz": [4.356407, -2.55218, 4.071964], "properties": {}}, {"name": "H", "species": [{"element": "H", "occu": 1}], "xyz": [4.549677, -4.452408, 2.529014], "properties": {}}, {"name": "H", "species": [{"element": "H", "occu": 1}], "xyz": [2.9887, -3.680778, 2.304683], "properties": {}}, {"name": "H", "species": [{"element": "H", "occu": 1}], "xyz": [1.888314, -1.035731, 0.273067], "properties": {}}, {"name": "H", "species": [{"element": "H", "occu": 1}], "xyz": [1.774856, 0.347609, -0.84747], "properties": {}}, {"name": "H", "species": [{"element": "H", "occu": 1}], "xyz": [5.448817, -3.277526, 0.486036], "properties": {}}, {"name": "H", "species": [{"element": "H", "occu": 1}], "xyz": [3.993753, -4.205741, 0.073701], "properties": {}}, {"name": "H", "species": [{"element": "H", "occu": 1}], "xyz": [3.904062, -2.444318, 0.27756], "properties": {}}]}, "smiles": "FCCCCOCCC", "inchi": "InChI=1S/C7H15FO/c1-2-6-9-7-4-3-5-8/h2-7H2,1H3", "formula_alphabetical": "C7 F1 H15 O1", "chemsys": "C-F-H-O", "energy": -450.853136389, "esp": {"1": ["F", -0.304091], "2": ["O", -0.341631], "3": ["C", -0.158878], "4": ["C", 0.084171], "5": ["C", 0.039541], "6": ["C", -0.007323], "7": ["C", 0.172753], "8": ["C", 0.158107], "9": ["C", -0.069175], "10": ["H", 0.066177], "11": ["H", 0.063114], "12": ["H", 0.046598], "13": ["H", 0.058428], "14": ["H", -0.004184], "15": ["H", 0.033554], "16": ["H", 0.069845], "17": ["H", 0.033806], "18": ["H", -0.038149], "19": ["H", -0.029365], "20": ["H", 0.059559], "21": ["H", 0.039299], "22": ["H", 0.01955], "23": ["H", 0.006766], "24": ["H", 0.001527]}, "dipole_moment": {"X": 1.4423, "Y": -1.0495, "Z": 0.4433, "Tot": 1.838}, "functional": "B3LYP", "basis": "6-31+G*", "phase": "gas", "tag": "lis", "state": "successful", "wall_time (s)": 9.21551264997106, "version": "0.0.1", "gauss_version": "ES64L-G16RevC.01", "last_updated": "2021-09-14 22:00:50.486000", "polarizability": 88.09, "fluorinated-solvent": "140839255", "run_ids": ["61411b7df49ad60079e6fcc1", "61411b8d5ea7c02a51c6e97c"]}