{"_id": "61412b6133cd0c7aca045018", "molecule": {"@module": "pymatgen.core.structure", "@class": "Molecule", "charge": 0, "spin_multiplicity": 1, "sites": [{"name": "F", "species": [{"element": "F", "occu": 1}], "xyz": [4.088375, 2.685214, -0.397935], "properties": {}}, {"name": "O", "species": [{"element": "O", "occu": 1}], "xyz": [2.75671, 0.980883, 2.467174], "properties": {}}, {"name": "C", "species": [{"element": "C", "occu": 1}], "xyz": [2.297682, -0.375207, 2.549387], "properties": {}}, {"name": "C", "species": [{"element": "C", "occu": 1}], "xyz": [2.040448, 1.812183, 1.563471], "properties": {}}, {"name": "C", "species": [{"element": "C", "occu": 1}], "xyz": [2.73578, 3.168561, 1.520926], "properties": {}}, {"name": "C", "species": [{"element": "C", "occu": 1}], "xyz": [2.800963, -1.206411, 1.365382], "properties": {}}, {"name": "C", "species": [{"element": "C", "occu": 1}], "xyz": [2.7965, -0.917324, 3.884646], "properties": {}}, {"name": "C", "species": [{"element": "C", "occu": 1}], "xyz": [4.143204, 3.093291, 0.955145], "properties": {}}, {"name": "H", "species": [{"element": "H", "occu": 1}], "xyz": [1.193676, -0.371096, 2.550327], "properties": {}}, {"name": "H", "species": [{"element": "H", "occu": 1}], "xyz": [0.998675, 1.929202, 1.90583], "properties": {}}, {"name": "H", "species": [{"element": "H", "occu": 1}], "xyz": [2.018189, 1.376653, 0.554377], "properties": {}}, {"name": "H", "species": [{"element": "H", "occu": 1}], "xyz": [2.794377, 3.575484, 2.539515], "properties": {}}, {"name": "H", "species": [{"element": "H", "occu": 1}], "xyz": [2.139297, 3.864112, 0.916903], "properties": {}}, {"name": "H", "species": [{"element": "H", "occu": 1}], "xyz": [3.897159, -1.220806, 1.358145], "properties": {}}, {"name": "H", "species": [{"element": "H", "occu": 1}], "xyz": [2.43904, -2.23896, 1.441246], "properties": {}}, {"name": "H", "species": [{"element": "H", "occu": 1}], "xyz": [2.458942, -0.80125, 0.407261], "properties": {}}, {"name": "H", "species": [{"element": "H", "occu": 1}], "xyz": [2.415284, -0.310015, 4.712258], "properties": {}}, {"name": "H", "species": [{"element": "H", "occu": 1}], "xyz": [2.470473, -1.954086, 4.027849], "properties": {}}, {"name": "H", "species": [{"element": "H", "occu": 1}], "xyz": [3.892259, -0.890636, 3.914622], "properties": {}}, {"name": "H", "species": [{"element": "H", "occu": 1}], "xyz": [4.749177, 2.35417, 1.487002], "properties": {}}, {"name": "H", "species": [{"element": "H", "occu": 1}], "xyz": [4.640341, 4.069345, 0.971837], "properties": {}}]}, "smiles": "FCCCOC(C)C", "inchi": "InChI=1S/C6H13FO/c1-6(2)8-5-3-4-7/h6H,3-5H2,1-2H3", "formula_alphabetical": "C6 F1 H13 O1", "chemsys": "C-F-H-O", "energy": -411.545182671, "esp": {"1": ["F", -0.296609], "2": ["O", -0.529885], "3": ["C", 0.700494], "4": ["C", 0.23242], "5": ["C", -0.113496], "6": ["C", -0.54008], "7": ["C", -0.445024], "8": ["C", 0.211315], "9": ["H", -0.082654], "10": ["H", -0.00179], "11": ["H", -0.003624], "12": ["H", 0.049386], "13": ["H", 0.05227], "14": ["H", 0.147131], "15": ["H", 0.103455], "16": ["H", 0.13716], "17": ["H", 0.098335], "18": ["H", 0.099505], "19": ["H", 0.109607], "20": ["H", 0.041858], "21": ["H", 0.030227]}, "dipole_moment": {"X": -1.1174, "Y": -0.0812, "Z": 1.325, "Tot": 1.7352}, "functional": "B3LYP", "basis": "6-31+G*", "phase": "gas", "tag": "lis", "state": "successful", "wall_time (s)": 7.903692893101834, "version": "0.0.1", "gauss_version": "ES64L-G16RevC.01", "last_updated": "2021-09-14 23:08:16.851000", "polarizability": 77.21, "fluorinated-solvent": "59139268", "run_ids": ["61412b4c751d30f568017a96", "61412b5ab51e925a9ab9c95f"]}