{"_id": "613a4b8d33922eda2566dc84", "molecule": {"@module": "pymatgen.core.structure", "@class": "Molecule", "charge": 0, "spin_multiplicity": 1, "sites": [{"name": "F", "species": [{"element": "F", "occu": 1}], "xyz": [0.853521, -0.026921, 0.206731], "properties": {}}, {"name": "O", "species": [{"element": "O", "occu": 1}], "xyz": [4.121553, -1.693974, -2.185073], "properties": {}}, {"name": "C", "species": [{"element": "C", "occu": 1}], "xyz": [2.229844, -2.392096, -0.891903], "properties": {}}, {"name": "C", "species": [{"element": "C", "occu": 1}], "xyz": [2.68267, -1.585397, 0.336497], "properties": {}}, {"name": "C", "species": [{"element": "C", "occu": 1}], "xyz": [2.704059, -1.82019, -2.223816], "properties": {}}, {"name": "C", "species": [{"element": "C", "occu": 1}], "xyz": [2.26044, -0.12763, 0.31973], "properties": {}}, {"name": "C", "species": [{"element": "C", "occu": 1}], "xyz": [4.719887, -1.255209, -3.40122], "properties": {}}, {"name": "C", "species": [{"element": "C", "occu": 1}], "xyz": [4.524097, 0.2365, -3.675343], "properties": {}}, {"name": "H", "species": [{"element": "H", "occu": 1}], "xyz": [2.604727, -3.418616, -0.794033], "properties": {}}, {"name": "H", "species": [{"element": "H", "occu": 1}], "xyz": [1.134374, -2.445354, -0.915476], "properties": {}}, {"name": "H", "species": [{"element": "H", "occu": 1}], "xyz": [3.77779, -1.607117, 0.404961], "properties": {}}, {"name": "H", "species": [{"element": "H", "occu": 1}], "xyz": [2.288257, -2.059195, 1.244552], "properties": {}}, {"name": "H", "species": [{"element": "H", "occu": 1}], "xyz": [2.409728, -2.491691, -3.048217], "properties": {}}, {"name": "H", "species": [{"element": "H", "occu": 1}], "xyz": [2.230214, -0.844715, -2.412431], "properties": {}}, {"name": "H", "species": [{"element": "H", "occu": 1}], "xyz": [2.684279, 0.415785, -0.531529], "properties": {}}, {"name": "H", "species": [{"element": "H", "occu": 1}], "xyz": [2.540907, 0.384173, 1.247073], "properties": {}}, {"name": "H", "species": [{"element": "H", "occu": 1}], "xyz": [5.786313, -1.479577, -3.291095], "properties": {}}, {"name": "H", "species": [{"element": "H", "occu": 1}], "xyz": [4.336452, -1.856191, -4.243348], "properties": {}}, {"name": "H", "species": [{"element": "H", "occu": 1}], "xyz": [4.892856, 0.829498, -2.830536], "properties": {}}, {"name": "H", "species": [{"element": "H", "occu": 1}], "xyz": [5.082812, 0.529669, -4.572923], "properties": {}}, {"name": "H", "species": [{"element": "H", "occu": 1}], "xyz": [3.471308, 0.48978, -3.842028], "properties": {}}]}, "smiles": "FCCCCOCC", "inchi": "InChI=1S/C6H13FO/c1-2-8-6-4-3-5-7/h2-6H2,1H3", "formula_alphabetical": "C6 F1 H13 O1", "chemsys": "C-F-H-O", "energy": -411.539182867, "esp": {"1": ["F", -0.305886], "2": ["O", -0.408765], "3": ["C", -0.098968], "4": ["C", 0.026705], "5": ["C", 0.037214], "6": ["C", 0.190865], "7": ["C", 0.265855], "8": ["C", -0.219896], "9": ["H", 0.05688], "10": ["H", 0.047673], "11": ["H", 0.001849], "12": ["H", 0.027003], "13": ["H", 0.056548], "14": ["H", 0.067732], "15": ["H", 0.03963], "16": ["H", 0.029123], "17": ["H", 0.018187], "18": ["H", -0.00901], "19": ["H", 0.070857], "20": ["H", 0.046957], "21": ["H", 0.059446]}, "dipole_moment": {"X": 1.4508, "Y": -0.1088, "Z": -1.0754, "Tot": 1.8092}, "functional": "B3LYP", "basis": "6-31+G*", "phase": "gas", "tag": "lis", "state": "successful", "wall_time (s)": 15.574817118002102, "version": "0.0.1", "gauss_version": "ES64L-G16RevC.01", "last_updated": "2021-09-09 17:59:41.111000", "polarizability": 76.53, "fluorinated-solvent": "54232066", "run_ids": ["613a48fb3318a784dbb41e06", "613a4b26e9457f32c9d90b1e"]}