{"_id": "61411b50c87f174fa30f68f4", "molecule": {"@module": "pymatgen.core.structure", "@class": "Molecule", "charge": 0, "spin_multiplicity": 1, "sites": [{"name": "F", "species": [{"element": "F", "occu": 1}], "xyz": [3.347867, -6.849561, 0.256427], "properties": {}}, {"name": "O", "species": [{"element": "O", "occu": 1}], "xyz": [2.614274, -2.698897, -0.289495], "properties": {}}, {"name": "C", "species": [{"element": "C", "occu": 1}], "xyz": [0.66247, -2.052533, -1.702468], "properties": {}}, {"name": "C", "species": [{"element": "C", "occu": 1}], "xyz": [2.187342, -2.123619, -1.520348], "properties": {}}, {"name": "C", "species": [{"element": "C", "occu": 1}], "xyz": [-0.002533, -1.34002, -0.518492], "properties": {}}, {"name": "C", "species": [{"element": "C", "occu": 1}], "xyz": [0.338205, -1.360381, -3.034381], "properties": {}}, {"name": "C", "species": [{"element": "C", "occu": 1}], "xyz": [2.369952, -4.092188, -0.164743], "properties": {}}, {"name": "C", "species": [{"element": "C", "occu": 1}], "xyz": [3.145464, -4.592278, 1.049091], "properties": {}}, {"name": "C", "species": [{"element": "C", "occu": 1}], "xyz": [2.903457, -6.060957, 1.340947], "properties": {}}, {"name": "H", "species": [{"element": "H", "occu": 1}], "xyz": [0.272784, -3.080063, -1.7549], "properties": {}}, {"name": "H", "species": [{"element": "H", "occu": 1}], "xyz": [2.603572, -1.108696, -1.516952], "properties": {}}, {"name": "H", "species": [{"element": "H", "occu": 1}], "xyz": [2.641072, -2.673336, -2.363328], "properties": {}}, {"name": "H", "species": [{"element": "H", "occu": 1}], "xyz": [2.696597, -4.622045, -1.073206], "properties": {}}, {"name": "H", "species": [{"element": "H", "occu": 1}], "xyz": [1.293449, -4.29154, -0.030711], "properties": {}}, {"name": "H", "species": [{"element": "H", "occu": 1}], "xyz": [0.344898, -0.300167, -0.44905], "properties": {}}, {"name": "H", "species": [{"element": "H", "occu": 1}], "xyz": [-1.093478, -1.323786, -0.631645], "properties": {}}, {"name": "H", "species": [{"element": "H", "occu": 1}], "xyz": [0.241093, -1.833359, 0.428451], "properties": {}}, {"name": "H", "species": [{"element": "H", "occu": 1}], "xyz": [0.798671, -1.880381, -3.884096], "properties": {}}, {"name": "H", "species": [{"element": "H", "occu": 1}], "xyz": [-0.744245, -1.330382, -3.206414], "properties": {}}, {"name": "H", "species": [{"element": "H", "occu": 1}], "xyz": [0.703608, -0.324402, -3.035617], "properties": {}}, {"name": "H", "species": [{"element": "H", "occu": 1}], "xyz": [2.843447, -4.009602, 1.930283], "properties": {}}, {"name": "H", "species": [{"element": "H", "occu": 1}], "xyz": [4.216638, -4.416372, 0.895401], "properties": {}}, {"name": "H", "species": [{"element": "H", "occu": 1}], "xyz": [1.83778, -6.284597, 1.47497], "properties": {}}, {"name": "H", "species": [{"element": "H", "occu": 1}], "xyz": [3.457187, -6.394215, 2.225206], "properties": {}}]}, "smiles": "FCCCOCC(C)C", "inchi": "InChI=1S/C7H15FO/c1-7(2)6-9-5-3-4-8/h7H,3-6H2,1-2H3", "formula_alphabetical": "C7 F1 H15 O1", "chemsys": "C-F-H-O", "energy": -450.854431638, "esp": {"1": ["F", -0.312692], "2": ["O", -0.497812], "3": ["C", 0.439475], "4": ["C", -0.02437], "5": ["C", -0.315081], "6": ["C", -0.464243], "7": ["C", 0.424654], "8": ["C", -0.180928], "9": ["C", 0.215907], "10": ["H", -0.067661], "11": ["H", 0.086536], "12": ["H", 0.045641], "13": ["H", -0.019969], "14": ["H", -0.035275], "15": ["H", 0.071174], "16": ["H", 0.05901], "17": ["H", 0.078114], "18": ["H", 0.087978], "19": ["H", 0.118799], "20": ["H", 0.095203], "21": ["H", 0.046333], "22": ["H", 0.083183], "23": ["H", 0.021006], "24": ["H", 0.045018]}, "dipole_moment": {"X": -1.2778, "Y": 0.6185, "Z": 0.4993, "Tot": 1.5049}, "functional": "B3LYP", "basis": "6-31+G*", "phase": "gas", "tag": "lis", "state": "successful", "wall_time (s)": 8.816914636990987, "version": "0.0.1", "gauss_version": "ES64L-G16RevC.01", "last_updated": "2021-09-14 21:59:44.453000", "polarizability": 89.15, "fluorinated-solvent": "140839242", "run_ids": ["61411b2d6b65ca6114dcf687", "61411b481811b6e580a11f47"]}