{"_id": "613a51a491d4f17f33546a2a", "molecule": {"@module": "pymatgen.core.structure", "@class": "Molecule", "charge": 0, "spin_multiplicity": 1, "sites": [{"name": "F", "species": [{"element": "F", "occu": 1}], "xyz": [1.341541, -0.152562, -0.253498], "properties": {}}, {"name": "F", "species": [{"element": "F", "occu": 1}], "xyz": [4.00402, 1.3787, 5.331941], "properties": {}}, {"name": "F", "species": [{"element": "F", "occu": 1}], "xyz": [2.064183, 2.287926, 4.927518], "properties": {}}, {"name": "F", "species": [{"element": "F", "occu": 1}], "xyz": [2.207973, 0.590017, 6.298597], "properties": {}}, {"name": "O", "species": [{"element": "O", "occu": 1}], "xyz": [3.046606, 0.517078, 2.788018], "properties": {}}, {"name": "C", "species": [{"element": "C", "occu": 1}], "xyz": [2.875383, 1.473121, 0.606451], "properties": {}}, {"name": "C", "species": [{"element": "C", "occu": 1}], "xyz": [2.297162, 1.468424, 2.015553], "properties": {}}, {"name": "C", "species": [{"element": "C", "occu": 1}], "xyz": [2.472403, 0.111767, 4.000481], "properties": {}}, {"name": "C", "species": [{"element": "C", "occu": 1}], "xyz": [2.71609, 0.142543, -0.108336], "properties": {}}, {"name": "C", "species": [{"element": "C", "occu": 1}], "xyz": [2.696506, 1.104447, 5.140703], "properties": {}}, {"name": "H", "species": [{"element": "H", "occu": 1}], "xyz": [2.3721, 2.46578, 2.464983], "properties": {}}, {"name": "H", "species": [{"element": "H", "occu": 1}], "xyz": [1.237955, 1.174233, 1.994656], "properties": {}}, {"name": "H", "species": [{"element": "H", "occu": 1}], "xyz": [3.944977, 1.717416, 0.654208], "properties": {}}, {"name": "H", "species": [{"element": "H", "occu": 1}], "xyz": [2.381464, 2.261475, 0.024659], "properties": {}}, {"name": "H", "species": [{"element": "H", "occu": 1}], "xyz": [1.388401, -0.055676, 3.918061], "properties": {}}, {"name": "H", "species": [{"element": "H", "occu": 1}], "xyz": [2.95588, -0.824058, 4.295229], "properties": {}}, {"name": "H", "species": [{"element": "H", "occu": 1}], "xyz": [3.159855, -0.677549, 0.46376], "properties": {}}, {"name": "H", "species": [{"element": "H", "occu": 1}], "xyz": [3.145321, 0.170349, -1.115468], "properties": {}}]}, "smiles": "FCCCOCC(F)(F)F", "inchi": "InChI=1S/C5H8F4O/c6-2-1-3-10-4-5(7,8)9/h1-4H2", "formula_alphabetical": "C5 F4 H8 O1", "chemsys": "C-F-H-O", "energy": -669.968605502, "esp": {"1": ["F", -0.308813], "2": ["F", -0.187795], "3": ["F", -0.201821], "4": ["F", -0.228438], "5": ["O", -0.353376], "6": ["C", -0.161124], "7": ["C", 0.236525], "8": ["C", -0.113078], "9": ["C", 0.28096], "10": ["C", 0.576822], "11": ["H", 0.017603], "12": ["H", 0.023982], "13": ["H", 0.052603], "14": ["H", 0.066163], "15": ["H", 0.119335], "16": ["H", 0.141288], "17": ["H", 0.021528], "18": ["H", 0.017637]}, "dipole_moment": {"X": 0.516, "Y": -0.1387, "Z": -1.349, "Tot": 1.451}, "functional": "B3LYP", "basis": "6-31+G*", "phase": "gas", "tag": "lis", "state": "successful", "wall_time (s)": 14.181835536961444, "version": "0.0.1", "gauss_version": "ES64L-G16RevC.01", "last_updated": "2021-09-09 18:25:40.224000", "polarizability": 67.06, "fluorinated-solvent": "53775619", "run_ids": ["613a4aa627675c00502f1d3a", "613a519b4e3842dcaa798764"]}