{"_id": "613a521757a9c4d6cbaf6ff4", "molecule": {"@module": "pymatgen.core.structure", "@class": "Molecule", "charge": 0, "spin_multiplicity": 1, "sites": [{"name": "F", "species": [{"element": "F", "occu": 1}], "xyz": [1.180468, 0.370987, 0.158649], "properties": {}}, {"name": "O", "species": [{"element": "O", "occu": 1}], "xyz": [2.748935, -2.702871, -0.838938], "properties": {}}, {"name": "C", "species": [{"element": "C", "occu": 1}], "xyz": [2.911637, -1.099755, 0.922883], "properties": {}}, {"name": "C", "species": [{"element": "C", "occu": 1}], "xyz": [2.24624, -2.388195, 0.45221], "properties": {}}, {"name": "C", "species": [{"element": "C", "occu": 1}], "xyz": [2.564174, 0.098404, 0.056534], "properties": {}}, {"name": "C", "species": [{"element": "C", "occu": 1}], "xyz": [2.140378, -3.846915, -1.424932], "properties": {}}, {"name": "C", "species": [{"element": "C", "occu": 1}], "xyz": [2.758586, -4.071256, -2.795298], "properties": {}}, {"name": "H", "species": [{"element": "H", "occu": 1}], "xyz": [4.001967, -1.232102, 0.908722], "properties": {}}, {"name": "H", "species": [{"element": "H", "occu": 1}], "xyz": [2.614213, -0.895255, 1.959238], "properties": {}}, {"name": "H", "species": [{"element": "H", "occu": 1}], "xyz": [2.466365, -3.208878, 1.155632], "properties": {}}, {"name": "H", "species": [{"element": "H", "occu": 1}], "xyz": [1.152758, -2.258604, 0.414595], "properties": {}}, {"name": "H", "species": [{"element": "H", "occu": 1}], "xyz": [2.774546, -0.095983, -0.999185], "properties": {}}, {"name": "H", "species": [{"element": "H", "occu": 1}], "xyz": [3.090313, 1.001683, 0.384268], "properties": {}}, {"name": "H", "species": [{"element": "H", "occu": 1}], "xyz": [2.298142, -4.726743, -0.777289], "properties": {}}, {"name": "H", "species": [{"element": "H", "occu": 1}], "xyz": [1.051885, -3.688007, -1.508987], "properties": {}}, {"name": "H", "species": [{"element": "H", "occu": 1}], "xyz": [3.838192, -4.234865, -2.707088], "properties": {}}, {"name": "H", "species": [{"element": "H", "occu": 1}], "xyz": [2.310581, -4.948535, -3.276837], "properties": {}}, {"name": "H", "species": [{"element": "H", "occu": 1}], "xyz": [2.593291, -3.19908, -3.437237], "properties": {}}]}, "smiles": "FCCCOCC", "inchi": "InChI=1S/C5H11FO/c1-2-7-5-3-4-6/h2-5H2,1H3", "formula_alphabetical": "C5 F1 H11 O1", "chemsys": "C-F-H-O", "energy": -372.228193873, "esp": {"1": ["F", -0.309553], "2": ["O", -0.460859], "3": ["C", -0.121297], "4": ["C", 0.223916], "5": ["C", 0.291618], "6": ["C", 0.430275], "7": ["C", -0.338711], "8": ["H", 0.040624], "9": ["H", 0.05031], "10": ["H", -0.002184], "11": ["H", 0.001569], "12": ["H", 0.014356], "13": ["H", 0.00678], "14": ["H", -0.046058], "15": ["H", -0.037723], "16": ["H", 0.086216], "17": ["H", 0.071777], "18": ["H", 0.098944]}, "dipole_moment": {"X": 1.0809, "Y": -1.3789, "Z": 0.3944, "Tot": 1.7959}, "functional": "B3LYP", "basis": "6-31+G*", "phase": "gas", "tag": "lis", "state": "successful", "wall_time (s)": 28.267268329000217, "version": "0.0.1", "gauss_version": "ES64L-G16RevC.01", "last_updated": "2021-09-09 18:27:35.148000", "polarizability": 65.64, "fluorinated-solvent": "54183389", "run_ids": ["613a4aacec57d8480188a7dd", "613a51fff3250e8790ae8943"]}