{"_id": "61410f6a06818c7e06077a6b", "molecule": {"@module": "pymatgen.core.structure", "@class": "Molecule", "charge": 0, "spin_multiplicity": 1, "sites": [{"name": "F", "species": [{"element": "F", "occu": 1}], "xyz": [1.088032, 0.615323, -0.029715], "properties": {}}, {"name": "F", "species": [{"element": "F", "occu": 1}], "xyz": [3.357712, -5.045864, 2.320019], "properties": {}}, {"name": "F", "species": [{"element": "F", "occu": 1}], "xyz": [5.359138, -5.510899, 1.484538], "properties": {}}, {"name": "O", "species": [{"element": "O", "occu": 1}], "xyz": [3.953476, -2.1994, 1.772403], "properties": {}}, {"name": "C", "species": [{"element": "C", "occu": 1}], "xyz": [2.089989, -0.802974, 2.346199], "properties": {}}, {"name": "C", "species": [{"element": "C", "occu": 1}], "xyz": [2.732679, 0.443536, 1.715968], "properties": {}}, {"name": "C", "species": [{"element": "C", "occu": 1}], "xyz": [2.520037, -2.124287, 1.721821], "properties": {}}, {"name": "C", "species": [{"element": "C", "occu": 1}], "xyz": [2.477984, 0.595115, 0.227053], "properties": {}}, {"name": "C", "species": [{"element": "C", "occu": 1}], "xyz": [4.530358, -3.325718, 1.14891], "properties": {}}, {"name": "C", "species": [{"element": "C", "occu": 1}], "xyz": [4.612042, -4.521976, 2.086258], "properties": {}}, {"name": "H", "species": [{"element": "H", "occu": 1}], "xyz": [2.333784, -0.822176, 3.41583], "properties": {}}, {"name": "H", "species": [{"element": "H", "occu": 1}], "xyz": [0.9981, -0.736349, 2.265651], "properties": {}}, {"name": "H", "species": [{"element": "H", "occu": 1}], "xyz": [3.820021, 0.412343, 1.861868], "properties": {}}, {"name": "H", "species": [{"element": "H", "occu": 1}], "xyz": [2.360437, 1.337737, 2.231709], "properties": {}}, {"name": "H", "species": [{"element": "H", "occu": 1}], "xyz": [2.071911, -2.964695, 2.265909], "properties": {}}, {"name": "H", "species": [{"element": "H", "occu": 1}], "xyz": [2.192957, -2.193541, 0.672438], "properties": {}}, {"name": "H", "species": [{"element": "H", "occu": 1}], "xyz": [2.892589, -0.237362, -0.352185], "properties": {}}, {"name": "H", "species": [{"element": "H", "occu": 1}], "xyz": [2.886503, 1.535951, -0.158024], "properties": {}}, {"name": "H", "species": [{"element": "H", "occu": 1}], "xyz": [3.983964, -3.627254, 0.242302], "properties": {}}, {"name": "H", "species": [{"element": "H", "occu": 1}], "xyz": [5.553591, -3.053448, 0.86879], "properties": {}}, {"name": "H", "species": [{"element": "H", "occu": 1}], "xyz": [5.059034, -4.289318, 3.057307], "properties": {}}]}, "smiles": "FCCCCOCC(F)F", "inchi": "InChI=1S/C6H11F3O/c7-3-1-2-4-10-5-6(8)9/h6H,1-5H2", "formula_alphabetical": "C6 F3 H11 O1", "chemsys": "C-F-H-O", "energy": -610.027477791, "esp": {"1": ["F", -0.293273], "2": ["F", -0.251587], "3": ["F", -0.274378], "4": ["O", -0.335362], "5": ["C", -0.132668], "6": ["C", 0.016112], "7": ["C", 0.126207], "8": ["C", 0.136569], "9": ["C", -0.161163], "10": ["C", 0.475278], "11": ["H", 0.059589], "12": ["H", 0.059823], "13": ["H", 0.001919], "14": ["H", 0.041442], "15": ["H", 0.047575], "16": ["H", 0.04984], "17": ["H", 0.061686], "18": ["H", 0.0467], "19": ["H", 0.129325], "20": ["H", 0.12899], "21": ["H", 0.067376]}, "dipole_moment": {"X": 1.5725, "Y": 1.2999, "Z": 0.4707, "Tot": 2.0938}, "functional": "B3LYP", "basis": "6-31+G*", "phase": "gas", "tag": "lis", "state": "successful", "wall_time (s)": 9.354189054924063, "version": "0.0.1", "gauss_version": "ES64L-G16RevC.01", "last_updated": "2021-09-14 21:08:58.203000", "polarizability": 77.68, "fluorinated-solvent": "122533010", "run_ids": ["61410f2ff6806db08320bc0e", "61410f5457903f80ac546e63"]}