{"_id": "613a565f66758edd6048e519", "molecule": {"@module": "pymatgen.core.structure", "@class": "Molecule", "charge": 0, "spin_multiplicity": 1, "sites": [{"name": "F", "species": [{"element": "F", "occu": 1}], "xyz": [3.375562, 1.518697, 0.176498], "properties": {}}, {"name": "F", "species": [{"element": "F", "occu": 1}], "xyz": [2.017984, -4.785935, 2.320486], "properties": {}}, {"name": "O", "species": [{"element": "O", "occu": 1}], "xyz": [2.906552, -2.658017, 0.32225], "properties": {}}, {"name": "C", "species": [{"element": "C", "occu": 1}], "xyz": [3.03405, -0.518364, 1.383019], "properties": {}}, {"name": "C", "species": [{"element": "C", "occu": 1}], "xyz": [2.357026, -1.883229, 1.393399], "properties": {}}, {"name": "C", "species": [{"element": "C", "occu": 1}], "xyz": [2.282546, -3.908109, 0.090529], "properties": {}}, {"name": "C", "species": [{"element": "C", "occu": 1}], "xyz": [2.790528, 0.238516, 0.087453], "properties": {}}, {"name": "C", "species": [{"element": "C", "occu": 1}], "xyz": [2.665044, -4.990649, 1.083864], "properties": {}}, {"name": "H", "species": [{"element": "H", "occu": 1}], "xyz": [4.113038, -0.64178, 1.533983], "properties": {}}, {"name": "H", "species": [{"element": "H", "occu": 1}], "xyz": [2.647575, 0.07352, 2.222467], "properties": {}}, {"name": "H", "species": [{"element": "H", "occu": 1}], "xyz": [2.518588, -2.383335, 2.356067], "properties": {}}, {"name": "H", "species": [{"element": "H", "occu": 1}], "xyz": [1.267669, -1.781356, 1.249122], "properties": {}}, {"name": "H", "species": [{"element": "H", "occu": 1}], "xyz": [1.185265, -3.803411, 0.069207], "properties": {}}, {"name": "H", "species": [{"element": "H", "occu": 1}], "xyz": [2.615961, -4.228082, -0.904445], "properties": {}}, {"name": "H", "species": [{"element": "H", "occu": 1}], "xyz": [1.719423, 0.387783, -0.09836], "properties": {}}, {"name": "H", "species": [{"element": "H", "occu": 1}], "xyz": [3.24181, -0.267462, -0.770123], "properties": {}}, {"name": "H", "species": [{"element": "H", "occu": 1}], "xyz": [2.354305, -5.976785, 0.718208], "properties": {}}, {"name": "H", "species": [{"element": "H", "occu": 1}], "xyz": [3.743242, -4.982563, 1.275824], "properties": {}}]}, "smiles": "FCCCOCCF", "inchi": "InChI=1S/C5H10F2O/c6-2-1-4-8-5-3-7/h1-5H2", "formula_alphabetical": "C5 F2 H10 O1", "chemsys": "C-F-H-O", "energy": -471.462511074, "esp": {"1": ["F", -0.344683], "2": ["F", -0.310314], "3": ["O", -0.391201], "4": ["C", -0.162681], "5": ["C", 0.135816], "6": ["C", -0.003796], "7": ["C", 0.39162], "8": ["C", 0.269452], "9": ["H", 0.076487], "10": ["H", 0.051599], "11": ["H", 0.068423], "12": ["H", 0.026174], "13": ["H", 0.076017], "14": ["H", 0.073767], "15": ["H", -0.008149], "16": ["H", -0.007641], "17": ["H", 0.012859], "18": ["H", 0.046252]}, "dipole_moment": {"X": -0.9326, "Y": -2.72, "Z": -0.8666, "Tot": 3.0032}, "functional": "B3LYP", "basis": "6-31+G*", "phase": "gas", "tag": "lis", "state": "successful", "wall_time (s)": 8.094913856009953, "version": "0.0.1", "gauss_version": "ES64L-G16RevC.01", "last_updated": "2021-09-09 18:45:51.005000", "polarizability": 65.89, "fluorinated-solvent": "54489129", "run_ids": ["613a4aefe086fea284adf421", "613a5658d90fc771c1b59ef6"]}