{"_id": "61412c5e1c553266e766f97d", "molecule": {"@module": "pymatgen.core.structure", "@class": "Molecule", "charge": 0, "spin_multiplicity": 1, "sites": [{"name": "F", "species": [{"element": "F", "occu": 1}], "xyz": [0.363762, -0.580094, 1.414659], "properties": {}}, {"name": "F", "species": [{"element": "F", "occu": 1}], "xyz": [6.844245, -3.196732, -1.548242], "properties": {}}, {"name": "F", "species": [{"element": "F", "occu": 1}], "xyz": [6.083483, -2.139849, 0.212412], "properties": {}}, {"name": "F", "species": [{"element": "F", "occu": 1}], "xyz": [7.525891, -4.406908, 0.7948], "properties": {}}, {"name": "F", "species": [{"element": "F", "occu": 1}], "xyz": [5.403124, -4.575476, 1.386489], "properties": {}}, {"name": "O", "species": [{"element": "O", "occu": 1}], "xyz": [4.664077, -3.40834, -1.001512], "properties": {}}, {"name": "C", "species": [{"element": "C", "occu": 1}], "xyz": [2.062015, -2.204281, -0.39367], "properties": {}}, {"name": "C", "species": [{"element": "C", "occu": 1}], "xyz": [2.646162, -2.376915, -1.804659], "properties": {}}, {"name": "C", "species": [{"element": "C", "occu": 1}], "xyz": [2.465561, -0.894583, 0.297719], "properties": {}}, {"name": "C", "species": [{"element": "C", "occu": 1}], "xyz": [4.165941, -2.343201, -1.86609], "properties": {}}, {"name": "C", "species": [{"element": "C", "occu": 1}], "xyz": [1.756223, -0.688522, 1.624451], "properties": {}}, {"name": "C", "species": [{"element": "C", "occu": 1}], "xyz": [5.915274, -3.282809, -0.532552], "properties": {}}, {"name": "C", "species": [{"element": "C", "occu": 1}], "xyz": [6.254318, -4.5193, 0.322515], "properties": {}}, {"name": "H", "species": [{"element": "H", "occu": 1}], "xyz": [2.373388, -3.051881, 0.230078], "properties": {}}, {"name": "H", "species": [{"element": "H", "occu": 1}], "xyz": [0.968914, -2.246466, -0.464427], "properties": {}}, {"name": "H", "species": [{"element": "H", "occu": 1}], "xyz": [2.296188, -3.325619, -2.231052], "properties": {}}, {"name": "H", "species": [{"element": "H", "occu": 1}], "xyz": [2.279353, -1.578429, -2.465406], "properties": {}}, {"name": "H", "species": [{"element": "H", "occu": 1}], "xyz": [2.248886, -0.035666, -0.353292], "properties": {}}, {"name": "H", "species": [{"element": "H", "occu": 1}], "xyz": [3.545048, -0.88087, 0.502696], "properties": {}}, {"name": "H", "species": [{"element": "H", "occu": 1}], "xyz": [4.536001, -2.531314, -2.878834], "properties": {}}, {"name": "H", "species": [{"element": "H", "occu": 1}], "xyz": [4.56613, -1.388087, -1.515268], "properties": {}}, {"name": "H", "species": [{"element": "H", "occu": 1}], "xyz": [2.0749, 0.235666, 2.118926], "properties": {}}, {"name": "H", "species": [{"element": "H", "occu": 1}], "xyz": [1.90889, -1.536678, 2.302683], "properties": {}}, {"name": "H", "species": [{"element": "H", "occu": 1}], "xyz": [6.163666, -5.439097, -0.261454], "properties": {}}]}, "smiles": "FCCCCCOC(F)(F)C(F)F", "inchi": "InChI=1S/C7H11F5O/c8-4-2-1-3-5-13-7(11,12)6(9)10/h6H,1-5H2", "formula_alphabetical": "C7 F5 H11 O1", "chemsys": "C-F-H-O", "energy": -847.842673944, "esp": {"1": ["F", -0.291737], "2": ["F", -0.215386], "3": ["F", -0.163887], "4": ["F", -0.192403], "5": ["F", -0.188703], "6": ["O", -0.366589], "7": ["C", 0.21312], "8": ["C", -0.292617], "9": ["C", -0.025429], "10": ["C", 0.228874], "11": ["C", 0.111378], "12": ["C", 0.409791], "13": ["C", 0.279313], "14": ["H", -0.025732], "15": ["H", -0.010916], "16": ["H", 0.093172], "17": ["H", 0.071401], "18": ["H", 0.034342], "19": ["H", 0.00909], "20": ["H", 0.054068], "21": ["H", 0.030862], "22": ["H", 0.058514], "23": ["H", 0.055933], "24": ["H", 0.123542]}, "dipole_moment": {"X": -0.1941, "Y": -0.2769, "Z": -2.2708, "Tot": 2.2958}, "functional": "B3LYP", "basis": "6-31+G*", "phase": "gas", "tag": "lis", "state": "successful", "wall_time (s)": 12.57012496900279, "version": "0.0.1", "gauss_version": "ES64L-G16RevC.01", "last_updated": "2021-09-14 23:12:30.120000", "polarizability": 90.39, "fluorinated-solvent": "89837213", "run_ids": ["61412c3c899ccaedd7e844e8", "61412c54dafc3174d8ca5001"]}