{"_id": "61412887a43bea942616a537", "molecule": {"@module": "pymatgen.core.structure", "@class": "Molecule", "charge": 0, "spin_multiplicity": 1, "sites": [{"name": "F", "species": [{"element": "F", "occu": 1}], "xyz": [1.758332, -4.2875, 0.326553], "properties": {}}, {"name": "O", "species": [{"element": "O", "occu": 1}], "xyz": [2.946074, -1.18441, -2.324111], "properties": {}}, {"name": "C", "species": [{"element": "C", "occu": 1}], "xyz": [2.582828, -1.845108, -1.121009], "properties": {}}, {"name": "C", "species": [{"element": "C", "occu": 1}], "xyz": [3.35936, -3.155919, -1.059573], "properties": {}}, {"name": "C", "species": [{"element": "C", "occu": 1}], "xyz": [2.126103, -0.069143, -2.665628], "properties": {}}, {"name": "C", "species": [{"element": "C", "occu": 1}], "xyz": [2.271888, 1.130135, -1.722108], "properties": {}}, {"name": "C", "species": [{"element": "C", "occu": 1}], "xyz": [3.120009, -3.925333, 0.225496], "properties": {}}, {"name": "C", "species": [{"element": "C", "occu": 1}], "xyz": [3.720959, 1.609305, -1.588274], "properties": {}}, {"name": "H", "species": [{"element": "H", "occu": 1}], "xyz": [1.499134, -2.040531, -1.102088], "properties": {}}, {"name": "H", "species": [{"element": "H", "occu": 1}], "xyz": [2.825528, -1.223677, -0.242596], "properties": {}}, {"name": "H", "species": [{"element": "H", "occu": 1}], "xyz": [4.433453, -2.938194, -1.138009], "properties": {}}, {"name": "H", "species": [{"element": "H", "occu": 1}], "xyz": [3.091027, -3.77951, -1.920446], "properties": {}}, {"name": "H", "species": [{"element": "H", "occu": 1}], "xyz": [2.444316, 0.210472, -3.676536], "properties": {}}, {"name": "H", "species": [{"element": "H", "occu": 1}], "xyz": [1.070678, -0.387278, -2.716612], "properties": {}}, {"name": "H", "species": [{"element": "H", "occu": 1}], "xyz": [1.638295, 1.938034, -2.115005], "properties": {}}, {"name": "H", "species": [{"element": "H", "occu": 1}], "xyz": [1.865014, 0.879985, -0.732914], "properties": {}}, {"name": "H", "species": [{"element": "H", "occu": 1}], "xyz": [3.351475, -3.325513, 1.114467], "properties": {}}, {"name": "H", "species": [{"element": "H", "occu": 1}], "xyz": [3.699711, -4.854153, 0.25466], "properties": {}}, {"name": "H", "species": [{"element": "H", "occu": 1}], "xyz": [4.127115, 1.908268, -2.563114], "properties": {}}, {"name": "H", "species": [{"element": "H", "occu": 1}], "xyz": [3.794322, 2.469732, -0.912883], "properties": {}}, {"name": "H", "species": [{"element": "H", "occu": 1}], "xyz": [4.36135, 0.81065, -1.19796], "properties": {}}]}, "smiles": "FCCCOCCC", "inchi": "InChI=1S/C6H13FO/c1-2-5-8-6-3-4-7/h2-6H2,1H3", "formula_alphabetical": "C6 F1 H13 O1", "chemsys": "C-F-H-O", "energy": -411.538836635, "esp": {"1": ["F", -0.319936], "2": ["O", -0.463976], "3": ["C", 0.393034], "4": ["C", -0.215116], "5": ["C", -0.048028], "6": ["C", 0.196629], "7": ["C", 0.259863], "8": ["C", -0.17013], "9": ["H", -0.005803], "10": ["H", -0.009107], "11": ["H", 0.052382], "12": ["H", 0.088405], "13": ["H", 0.101804], "14": ["H", 0.047214], "15": ["H", -0.031909], "16": ["H", -0.044662], "17": ["H", 0.00663], "18": ["H", 0.03741], "19": ["H", 0.04027], "20": ["H", 0.031939], "21": ["H", 0.053088]}, "dipole_moment": {"X": 0.9199, "Y": 1.1431, "Z": 0.3942, "Tot": 1.5193}, "functional": "B3LYP", "basis": "6-31+G*", "phase": "gas", "tag": "lis", "state": "successful", "wall_time (s)": 7.306315229041502, "version": "0.0.1", "gauss_version": "ES64L-G16RevC.01", "last_updated": "2021-09-14 22:56:06.814000", "polarizability": 77.0, "fluorinated-solvent": "58805568", "run_ids": ["6141286bef6b42a86f325ff0", "6141287fc633725469d32581"]}