{"_id": "613a4bbce9c488caa6dafc06", "molecule": {"@module": "pymatgen.core.structure", "@class": "Molecule", "charge": 0, "spin_multiplicity": 1, "sites": [{"name": "F", "species": [{"element": "F", "occu": 1}], "xyz": [2.337726, -2.226238, 2.861933], "properties": {}}, {"name": "O", "species": [{"element": "O", "occu": 1}], "xyz": [2.973095, -2.538686, -1.32657], "properties": {}}, {"name": "C", "species": [{"element": "C", "occu": 1}], "xyz": [2.911859, -1.314066, 0.715865], "properties": {}}, {"name": "C", "species": [{"element": "C", "occu": 1}], "xyz": [2.287607, -2.449041, -0.087125], "properties": {}}, {"name": "C", "species": [{"element": "C", "occu": 1}], "xyz": [2.219282, -1.080075, 2.045283], "properties": {}}, {"name": "C", "species": [{"element": "C", "occu": 1}], "xyz": [2.506038, -3.596812, -2.143776], "properties": {}}, {"name": "H", "species": [{"element": "H", "occu": 1}], "xyz": [2.857227, -0.387255, 0.128532], "properties": {}}, {"name": "H", "species": [{"element": "H", "occu": 1}], "xyz": [3.973387, -1.529514, 0.885738], "properties": {}}, {"name": "H", "species": [{"element": "H", "occu": 1}], "xyz": [2.367018, -3.398491, 0.465575], "properties": {}}, {"name": "H", "species": [{"element": "H", "occu": 1}], "xyz": [1.213896, -2.251944, -0.260702], "properties": {}}, {"name": "H", "species": [{"element": "H", "occu": 1}], "xyz": [1.145455, -0.891543, 1.923311], "properties": {}}, {"name": "H", "species": [{"element": "H", "occu": 1}], "xyz": [2.672486, -0.248462, 2.595359], "properties": {}}, {"name": "H", "species": [{"element": "H", "occu": 1}], "xyz": [2.637541, -4.573935, -1.651255], "properties": {}}, {"name": "H", "species": [{"element": "H", "occu": 1}], "xyz": [1.440526, -3.469994, -2.396826], "properties": {}}, {"name": "H", "species": [{"element": "H", "occu": 1}], "xyz": [3.096974, -3.576284, -3.063202], "properties": {}}]}, "smiles": "FCCCOC", "inchi": "InChI=1S/C4H9FO/c1-6-4-2-3-5/h2-4H2,1H3", "formula_alphabetical": "C4 F1 H9 O1", "chemsys": "C-F-H-O", "energy": -332.907081547, "esp": {"1": ["F", -0.312278], "2": ["O", -0.447293], "3": ["C", -0.188773], "4": ["C", 0.35571], "5": ["C", 0.222949], "6": ["C", 0.023668], "7": ["H", 0.050066], "8": ["H", 0.084612], "9": ["H", 0.002651], "10": ["H", -0.012321], "11": ["H", 0.019797], "12": ["H", 0.047271], "13": ["H", 0.036796], "14": ["H", 0.031189], "15": ["H", 0.085954]}, "dipole_moment": {"X": -1.0018, "Y": 0.7016, "Z": -1.0043, "Tot": 1.5826}, "functional": "B3LYP", "basis": "6-31+G*", "phase": "gas", "tag": "lis", "state": "successful", "wall_time (s)": 5.180025179986842, "version": "0.0.1", "gauss_version": "ES64L-G16RevC.01", "last_updated": "2021-09-09 18:00:28.336000", "polarizability": 53.92, "fluorinated-solvent": "18335957", "run_ids": ["613a48e303536ca23bf92401", "613a4b35c69a07ca39e4483d"]}