{"_id": "613a51557cf1f3cf61cc3fe5", "molecule": {"@module": "pymatgen.core.structure", "@class": "Molecule", "charge": 0, "spin_multiplicity": 1, "sites": [{"name": "F", "species": [{"element": "F", "occu": 1}], "xyz": [5.319354, -1.517418, 4.314984], "properties": {}}, {"name": "F", "species": [{"element": "F", "occu": 1}], "xyz": [2.190459, -6.135478, -0.774719], "properties": {}}, {"name": "O", "species": [{"element": "O", "occu": 1}], "xyz": [2.67014, -2.438064, 1.177537], "properties": {}}, {"name": "C", "species": [{"element": "C", "occu": 1}], "xyz": [2.4311, -1.25941, 1.93645], "properties": {}}, {"name": "C", "species": [{"element": "C", "occu": 1}], "xyz": [2.001174, -2.455315, -0.077264], "properties": {}}, {"name": "C", "species": [{"element": "C", "occu": 1}], "xyz": [3.180359, -1.371241, 3.258737], "properties": {}}, {"name": "C", "species": [{"element": "C", "occu": 1}], "xyz": [2.352082, -3.75103, -0.798575], "properties": {}}, {"name": "C", "species": [{"element": "C", "occu": 1}], "xyz": [4.68195, -1.501783, 3.058003], "properties": {}}, {"name": "C", "species": [{"element": "C", "occu": 1}], "xyz": [1.912428, -4.979507, -0.017778], "properties": {}}, {"name": "H", "species": [{"element": "H", "occu": 1}], "xyz": [1.351004, -1.139144, 2.121549], "properties": {}}, {"name": "H", "species": [{"element": "H", "occu": 1}], "xyz": [2.771303, -0.375102, 1.368787], "properties": {}}, {"name": "H", "species": [{"element": "H", "occu": 1}], "xyz": [0.910607, -2.379711, 0.080598], "properties": {}}, {"name": "H", "species": [{"element": "H", "occu": 1}], "xyz": [2.309224, -1.588011, -0.684079], "properties": {}}, {"name": "H", "species": [{"element": "H", "occu": 1}], "xyz": [2.811914, -2.239271, 3.817983], "properties": {}}, {"name": "H", "species": [{"element": "H", "occu": 1}], "xyz": [2.976017, -0.476555, 3.860362], "properties": {}}, {"name": "H", "species": [{"element": "H", "occu": 1}], "xyz": [1.861296, -3.756096, -1.780043], "properties": {}}, {"name": "H", "species": [{"element": "H", "occu": 1}], "xyz": [3.434345, -3.796343, -0.967783], "properties": {}}, {"name": "H", "species": [{"element": "H", "occu": 1}], "xyz": [5.091053, -0.649955, 2.500413], "properties": {}}, {"name": "H", "species": [{"element": "H", "occu": 1}], "xyz": [4.944727, -2.431396, 2.546134], "properties": {}}, {"name": "H", "species": [{"element": "H", "occu": 1}], "xyz": [2.448568, -5.072381, 0.930472], "properties": {}}, {"name": "H", "species": [{"element": "H", "occu": 1}], "xyz": [0.831968, -4.972118, 0.173113], "properties": {}}]}, "smiles": "FCCCOCCCF", "inchi": "InChI=1S/C6H12F2O/c7-3-1-5-9-6-2-4-8/h1-6H2", "formula_alphabetical": "C6 F2 H12 O1", "chemsys": "C-F-H-O", "energy": -510.780304877, "esp": {"1": ["F", -0.337057], "2": ["F", -0.334097], "3": ["O", -0.366017], "4": ["C", 0.062196], "5": ["C", -0.020836], "6": ["C", -0.067011], "7": ["C", -0.058156], "8": ["C", 0.326766], "9": ["C", 0.305148], "10": ["H", 0.051572], "11": ["H", 0.038288], "12": ["H", 0.058059], "13": ["H", 0.074069], "14": ["H", 0.058406], "15": ["H", 0.037361], "16": ["H", 0.045418], "17": ["H", 0.062767], "18": ["H", 0.008414], "19": ["H", 0.015222], "20": ["H", 0.022147], "21": ["H", 0.017343]}, "dipole_moment": {"X": -2.2162, "Y": 2.8356, "Z": -1.2106, "Tot": 3.7971}, "functional": "B3LYP", "basis": "6-31+G*", "phase": "gas", "tag": "lis", "state": "successful", "wall_time (s)": 23.882317075000174, "version": "0.0.1", "gauss_version": "ES64L-G16RevC.01", "last_updated": "2021-09-09 18:24:20.789000", "polarizability": 77.49, "fluorinated-solvent": "56776417", "run_ids": ["613a4aa27cfa51acd442b581", "613a51457f11fd2293580f6f"]}