{"_id": "613a5317f4eb32509b02f73f", "molecule": {"@module": "pymatgen.core.structure", "@class": "Molecule", "charge": 0, "spin_multiplicity": 1, "sites": [{"name": "F", "species": [{"element": "F", "occu": 1}], "xyz": [2.860716, -2.495767, -2.696999], "properties": {}}, {"name": "F", "species": [{"element": "F", "occu": 1}], "xyz": [1.129881, 2.806174, -3.159688], "properties": {}}, {"name": "F", "species": [{"element": "F", "occu": 1}], "xyz": [2.954804, 3.82265, -2.513408], "properties": {}}, {"name": "F", "species": [{"element": "F", "occu": 1}], "xyz": [3.004577, 2.42882, -4.196593], "properties": {}}, {"name": "O", "species": [{"element": "O", "occu": 1}], "xyz": [2.764604, 1.696586, -2.081245], "properties": {}}, {"name": "C", "species": [{"element": "C", "occu": 1}], "xyz": [2.802146, -0.553365, -1.295711], "properties": {}}, {"name": "C", "species": [{"element": "C", "occu": 1}], "xyz": [2.304273, 0.357177, -2.407431], "properties": {}}, {"name": "C", "species": [{"element": "C", "occu": 1}], "xyz": [2.343005, -1.988321, -1.488382], "properties": {}}, {"name": "C", "species": [{"element": "C", "occu": 1}], "xyz": [2.470439, 2.658984, -2.966526], "properties": {}}, {"name": "H", "species": [{"element": "H", "occu": 1}], "xyz": [2.423829, -0.191776, -0.330543], "properties": {}}, {"name": "H", "species": [{"element": "H", "occu": 1}], "xyz": [3.896756, -0.518257, -1.255748], "properties": {}}, {"name": "H", "species": [{"element": "H", "occu": 1}], "xyz": [2.713885, 0.062487, -3.377469], "properties": {}}, {"name": "H", "species": [{"element": "H", "occu": 1}], "xyz": [1.209588, 0.36444, -2.46145], "properties": {}}, {"name": "H", "species": [{"element": "H", "occu": 1}], "xyz": [1.251003, -2.068082, -1.552507], "properties": {}}, {"name": "H", "species": [{"element": "H", "occu": 1}], "xyz": [2.706794, -2.63425, -0.682867], "properties": {}}]}, "smiles": "FCCCOC(F)(F)F", "inchi": "InChI=1S/C4H6F4O/c5-2-1-3-9-4(6,7)8/h1-3H2", "formula_alphabetical": "C4 F4 H6 O1", "chemsys": "C-F-H-O", "energy": -630.666856838, "esp": {"1": ["F", -0.27493], "2": ["F", -0.238601], "3": ["F", -0.198768], "4": ["F", -0.229597], "5": ["O", -0.441562], "6": ["C", -0.130225], "7": ["C", 0.2698], "8": ["C", 0.103088], "9": ["C", 0.768583], "10": ["H", 0.063377], "11": ["H", 0.095313], "12": ["H", 0.040451], "13": ["H", 0.034192], "14": ["H", 0.060072], "15": ["H", 0.078807]}, "dipole_moment": {"X": -0.9252, "Y": -2.0071, "Z": 2.1881, "Tot": 3.11}, "functional": "B3LYP", "basis": "6-31+G*", "phase": "gas", "tag": "lis", "state": "successful", "wall_time (s)": 8.568512707017362, "version": "0.0.1", "gauss_version": "ES64L-G16RevC.01", "last_updated": "2021-09-09 18:31:51.642000", "polarizability": 55.5, "fluorinated-solvent": "21339783", "run_ids": ["613a4abc1be6ecd758595015", "613a5311824edb26bd762a7b"]}