{"_id": "61410fe48c0e09fdc82909da", "molecule": {"@module": "pymatgen.core.structure", "@class": "Molecule", "charge": 0, "spin_multiplicity": 1, "sites": [{"name": "F", "species": [{"element": "F", "occu": 1}], "xyz": [1.426705, -4.088523, -1.866263], "properties": {}}, {"name": "O", "species": [{"element": "O", "occu": 1}], "xyz": [2.238423, -2.442518, 0.581836], "properties": {}}, {"name": "C", "species": [{"element": "C", "occu": 1}], "xyz": [0.347413, -2.068282, 2.028944], "properties": {}}, {"name": "C", "species": [{"element": "C", "occu": 1}], "xyz": [0.8101, -2.346099, 0.597256], "properties": {}}, {"name": "C", "species": [{"element": "C", "occu": 1}], "xyz": [0.720613, -3.222949, 2.971384], "properties": {}}, {"name": "C", "species": [{"element": "C", "occu": 1}], "xyz": [0.884359, -0.725399, 2.546011], "properties": {}}, {"name": "C", "species": [{"element": "C", "occu": 1}], "xyz": [2.831012, -2.509956, -0.698974], "properties": {}}, {"name": "C", "species": [{"element": "C", "occu": 1}], "xyz": [2.727911, -3.870096, -1.366903], "properties": {}}, {"name": "H", "species": [{"element": "H", "occu": 1}], "xyz": [-0.750839, -2.006334, 1.976983], "properties": {}}, {"name": "H", "species": [{"element": "H", "occu": 1}], "xyz": [0.494322, -1.528372, -0.072501], "properties": {}}, {"name": "H", "species": [{"element": "H", "occu": 1}], "xyz": [0.363279, -3.277293, 0.222812], "properties": {}}, {"name": "H", "species": [{"element": "H", "occu": 1}], "xyz": [1.809232, -3.324476, 3.041788], "properties": {}}, {"name": "H", "species": [{"element": "H", "occu": 1}], "xyz": [0.327367, -3.04619, 3.979903], "properties": {}}, {"name": "H", "species": [{"element": "H", "occu": 1}], "xyz": [0.314695, -4.17724, 2.612112], "properties": {}}, {"name": "H", "species": [{"element": "H", "occu": 1}], "xyz": [0.590509, 0.101796, 1.886988], "properties": {}}, {"name": "H", "species": [{"element": "H", "occu": 1}], "xyz": [0.498025, -0.510841, 3.549852], "properties": {}}, {"name": "H", "species": [{"element": "H", "occu": 1}], "xyz": [1.978535, -0.743412, 2.597273], "properties": {}}, {"name": "H", "species": [{"element": "H", "occu": 1}], "xyz": [3.895703, -2.288822, -0.549604], "properties": {}}, {"name": "H", "species": [{"element": "H", "occu": 1}], "xyz": [2.411658, -1.742518, -1.371026], "properties": {}}, {"name": "H", "species": [{"element": "H", "occu": 1}], "xyz": [2.940358, -4.672644, -0.652441], "properties": {}}, {"name": "H", "species": [{"element": "H", "occu": 1}], "xyz": [3.413171, -3.933944, -2.221021], "properties": {}}]}, "smiles": "FCCOCC(C)C", "inchi": "InChI=1S/C6H13FO/c1-6(2)5-8-4-3-7/h6H,3-5H2,1-2H3", "formula_alphabetical": "C6 F1 H13 O1", "chemsys": "C-F-H-O", "energy": -411.537981357, "esp": {"1": ["F", -0.298945], "2": ["O", -0.315391], "3": ["C", 0.392063], "4": ["C", -0.049764], "5": ["C", -0.294911], "6": ["C", -0.287629], "7": ["C", -0.018078], "8": ["C", 0.223234], "9": ["H", -0.071935], "10": ["H", 0.050427], "11": ["H", 0.073044], "12": ["H", 0.059073], "13": ["H", 0.063992], "14": ["H", 0.061897], "15": ["H", 0.05569], "16": ["H", 0.061105], "17": ["H", 0.062615], "18": ["H", 0.06391], "19": ["H", 0.088266], "20": ["H", 0.055205], "21": ["H", 0.026131]}, "dipole_moment": {"X": 1.0171, "Y": 0.4056, "Z": -0.2856, "Tot": 1.1317}, "functional": "B3LYP", "basis": "6-31+G*", "phase": "gas", "tag": "lis", "state": "successful", "wall_time (s)": 7.90362861007452, "version": "0.0.1", "gauss_version": "ES64L-G16RevC.01", "last_updated": "2021-09-14 21:11:00.376000", "polarizability": 77.4, "fluorinated-solvent": "87069584", "run_ids": ["61410fc700670c344a660c79", "61410fdb030908a62567c1ee"]}