{"_id": "61410e809d3543dea7b60b18", "molecule": {"@module": "pymatgen.core.structure", "@class": "Molecule", "charge": 0, "spin_multiplicity": 1, "sites": [{"name": "F", "species": [{"element": "F", "occu": 1}], "xyz": [1.453961, 2.365689, -1.891206], "properties": {}}, {"name": "O", "species": [{"element": "O", "occu": 1}], "xyz": [1.100913, -0.164145, -3.614053], "properties": {}}, {"name": "O", "species": [{"element": "O", "occu": 1}], "xyz": [-0.020467, -1.926304, 0.071434], "properties": {}}, {"name": "C", "species": [{"element": "C", "occu": 1}], "xyz": [0.546407, -2.040415, -2.253755], "properties": {}}, {"name": "C", "species": [{"element": "C", "occu": 1}], "xyz": [1.223893, -0.676727, -2.282766], "properties": {}}, {"name": "C", "species": [{"element": "C", "occu": 1}], "xyz": [0.655101, -2.719366, -0.894953], "properties": {}}, {"name": "C", "species": [{"element": "C", "occu": 1}], "xyz": [1.811653, 1.031042, -3.871148], "properties": {}}, {"name": "C", "species": [{"element": "C", "occu": 1}], "xyz": [1.187585, 2.280603, -3.273417], "properties": {}}, {"name": "C", "species": [{"element": "C", "occu": 1}], "xyz": [0.031209, -2.472398, 1.375678], "properties": {}}, {"name": "H", "species": [{"element": "H", "occu": 1}], "xyz": [-0.511445, -1.924086, -2.518251], "properties": {}}, {"name": "H", "species": [{"element": "H", "occu": 1}], "xyz": [1.005739, -2.686507, -3.013082], "properties": {}}, {"name": "H", "species": [{"element": "H", "occu": 1}], "xyz": [2.292399, -0.770646, -2.022132], "properties": {}}, {"name": "H", "species": [{"element": "H", "occu": 1}], "xyz": [0.761073, 0.001888, -1.558352], "properties": {}}, {"name": "H", "species": [{"element": "H", "occu": 1}], "xyz": [0.206743, -3.726841, -0.936699], "properties": {}}, {"name": "H", "species": [{"element": "H", "occu": 1}], "xyz": [1.714732, -2.840599, -0.604707], "properties": {}}, {"name": "H", "species": [{"element": "H", "occu": 1}], "xyz": [1.815643, 1.144859, -4.962475], "properties": {}}, {"name": "H", "species": [{"element": "H", "occu": 1}], "xyz": [2.857554, 0.95163, -3.529493], "properties": {}}, {"name": "H", "species": [{"element": "H", "occu": 1}], "xyz": [0.099142, 2.270462, -3.395661], "properties": {}}, {"name": "H", "species": [{"element": "H", "occu": 1}], "xyz": [1.610596, 3.181007, -3.735562], "properties": {}}, {"name": "H", "species": [{"element": "H", "occu": 1}], "xyz": [-0.441139, -3.468019, 1.414627], "properties": {}}, {"name": "H", "species": [{"element": "H", "occu": 1}], "xyz": [1.06993, -2.56122, 1.734417], "properties": {}}, {"name": "H", "species": [{"element": "H", "occu": 1}], "xyz": [-0.51642, -1.790429, 2.031453], "properties": {}}]}, "smiles": "FCCOCCCOC", "inchi": "InChI=1S/C6H13FO2/c1-8-4-2-5-9-6-3-7/h2-6H2,1H3", "formula_alphabetical": "C6 F1 H13 O2", "chemsys": "C-F-H-O", "energy": -486.742632218, "esp": {"1": ["F", -0.28664], "2": ["O", -0.511759], "3": ["O", -0.332656], "4": ["C", -0.280662], "5": ["C", 0.455566], "6": ["C", 0.142868], "7": ["C", 0.148566], "8": ["C", 0.1261], "9": ["C", -0.098653], "10": ["H", 0.098866], "11": ["H", 0.07312], "12": ["H", -0.019523], "13": ["H", -0.022718], "14": ["H", 0.049699], "15": ["H", 0.017064], "16": ["H", 0.04787], "17": ["H", 0.033555], "18": ["H", 0.082795], "19": ["H", 0.038954], "20": ["H", 0.06495], "21": ["H", 0.067341], "22": ["H", 0.105298]}, "dipole_moment": {"X": 0.8698, "Y": -0.8421, "Z": -0.5045, "Tot": 1.3116}, "functional": "B3LYP", "basis": "6-31+G*", "phase": "gas", "tag": "lis", "state": "successful", "wall_time (s)": 8.44994115701411, "version": "0.0.1", "gauss_version": "ES64L-G16RevC.01", "last_updated": "2021-09-14 21:05:03.928000", "polarizability": 82.57, "fluorinated-solvent": "89600470", "run_ids": ["61410e088c94945b1f42f267", "61410e49930081f9169b71d7"]}