{"_id": "613a4b8c86c796bb025b30f7", "molecule": {"@module": "pymatgen.core.structure", "@class": "Molecule", "charge": 0, "spin_multiplicity": 1, "sites": [{"name": "F", "species": [{"element": "F", "occu": 1}], "xyz": [4.74845, 0.882437, -0.936673], "properties": {}}, {"name": "O", "species": [{"element": "O", "occu": 1}], "xyz": [2.239376, 1.825061, 1.447518], "properties": {}}, {"name": "C", "species": [{"element": "C", "occu": 1}], "xyz": [2.715894, 1.343879, 0.204888], "properties": {}}, {"name": "C", "species": [{"element": "C", "occu": 1}], "xyz": [0.818126, 1.874886, 1.533228], "properties": {}}, {"name": "C", "species": [{"element": "C", "occu": 1}], "xyz": [4.234457, 1.355231, 0.283163], "properties": {}}, {"name": "C", "species": [{"element": "C", "occu": 1}], "xyz": [0.439463, 2.405235, 2.905758], "properties": {}}, {"name": "H", "species": [{"element": "H", "occu": 1}], "xyz": [2.380101, 1.985057, -0.626525], "properties": {}}, {"name": "H", "species": [{"element": "H", "occu": 1}], "xyz": [2.359693, 0.31891, 0.010798], "properties": {}}, {"name": "H", "species": [{"element": "H", "occu": 1}], "xyz": [0.421579, 2.528063, 0.737653], "properties": {}}, {"name": "H", "species": [{"element": "H", "occu": 1}], "xyz": [0.401715, 0.865812, 1.374471], "properties": {}}, {"name": "H", "species": [{"element": "H", "occu": 1}], "xyz": [4.594891, 0.696817, 1.079834], "properties": {}}, {"name": "H", "species": [{"element": "H", "occu": 1}], "xyz": [4.615354, 2.369311, 0.440217], "properties": {}}, {"name": "H", "species": [{"element": "H", "occu": 1}], "xyz": [0.851007, 3.409155, 3.055956], "properties": {}}, {"name": "H", "species": [{"element": "H", "occu": 1}], "xyz": [-0.651154, 2.456352, 3.005561], "properties": {}}, {"name": "H", "species": [{"element": "H", "occu": 1}], "xyz": [0.831418, 1.750413, 3.691483], "properties": {}}]}, "smiles": "FCCOCC", "inchi": "InChI=1S/C4H9FO/c1-2-6-4-3-5/h2-4H2,1H3", "formula_alphabetical": "C4 F1 H9 O1", "chemsys": "C-F-H-O", "energy": -332.90993478, "esp": {"1": ["F", -0.330543], "2": ["O", -0.537729], "3": ["C", 0.17834], "4": ["C", 0.4525], "5": ["C", 0.289901], "6": ["C", -0.323534], "7": ["H", 0.019792], "8": ["H", 0.017641], "9": ["H", -0.040503], "10": ["H", -0.039161], "11": ["H", 0.028308], "12": ["H", 0.028238], "13": ["H", 0.095204], "14": ["H", 0.06602], "15": ["H", 0.095528]}, "dipole_moment": {"X": -1.901, "Y": 0.3762, "Z": 0.9239, "Tot": 2.1468}, "functional": "B3LYP", "basis": "6-31+G*", "phase": "gas", "tag": "lis", "state": "successful", "wall_time (s)": 12.272464748937637, "version": "0.0.1", "gauss_version": "ES64L-G16RevC.01", "last_updated": "2021-09-09 17:59:40.185000", "polarizability": 53.98, "fluorinated-solvent": "13569461", "run_ids": ["613a48fa42876c97a7dc612d", "613a4b22339bde11b5d8889e"]}