{"_id": "61411d981cdab1a2b150976d", "molecule": {"@module": "pymatgen.core.structure", "@class": "Molecule", "charge": 0, "spin_multiplicity": 1, "sites": [{"name": "F", "species": [{"element": "F", "occu": 1}], "xyz": [1.443561, 3.373216, -2.828813], "properties": {}}, {"name": "O", "species": [{"element": "O", "occu": 1}], "xyz": [2.14177, 0.434648, -2.341223], "properties": {}}, {"name": "C", "species": [{"element": "C", "occu": 1}], "xyz": [0.23963, -0.986468, -2.829713], "properties": {}}, {"name": "C", "species": [{"element": "C", "occu": 1}], "xyz": [0.71304, 0.41318, -2.40921], "properties": {}}, {"name": "C", "species": [{"element": "C", "occu": 1}], "xyz": [0.701858, -2.030968, -1.797534], "properties": {}}, {"name": "C", "species": [{"element": "C", "occu": 1}], "xyz": [-1.299196, -0.960126, -2.890807], "properties": {}}, {"name": "C", "species": [{"element": "C", "occu": 1}], "xyz": [0.808388, -1.333092, -4.218377], "properties": {}}, {"name": "C", "species": [{"element": "C", "occu": 1}], "xyz": [2.706606, 1.602774, -1.781573], "properties": {}}, {"name": "C", "species": [{"element": "C", "occu": 1}], "xyz": [2.727274, 2.799212, -2.716938], "properties": {}}, {"name": "H", "species": [{"element": "H", "occu": 1}], "xyz": [0.298354, 0.670205, -1.419595], "properties": {}}, {"name": "H", "species": [{"element": "H", "occu": 1}], "xyz": [0.356642, 1.165446, -3.12645], "properties": {}}, {"name": "H", "species": [{"element": "H", "occu": 1}], "xyz": [0.298501, -1.805246, -0.801422], "properties": {}}, {"name": "H", "species": [{"element": "H", "occu": 1}], "xyz": [0.355818, -3.032852, -2.081214], "properties": {}}, {"name": "H", "species": [{"element": "H", "occu": 1}], "xyz": [1.793916, -2.050821, -1.724657], "properties": {}}, {"name": "H", "species": [{"element": "H", "occu": 1}], "xyz": [-1.659075, -0.221486, -3.618617], "properties": {}}, {"name": "H", "species": [{"element": "H", "occu": 1}], "xyz": [-1.686267, -1.941486, -3.191241], "properties": {}}, {"name": "H", "species": [{"element": "H", "occu": 1}], "xyz": [-1.735211, -0.713931, -1.913822], "properties": {}}, {"name": "H", "species": [{"element": "H", "occu": 1}], "xyz": [0.487351, -0.599276, -4.969345], "properties": {}}, {"name": "H", "species": [{"element": "H", "occu": 1}], "xyz": [1.902934, -1.343197, -4.20045], "properties": {}}, {"name": "H", "species": [{"element": "H", "occu": 1}], "xyz": [0.458729, -2.321533, -4.542122], "properties": {}}, {"name": "H", "species": [{"element": "H", "occu": 1}], "xyz": [3.746267, 1.347336, -1.539559], "properties": {}}, {"name": "H", "species": [{"element": "H", "occu": 1}], "xyz": [2.194367, 1.881875, -0.845602], "properties": {}}, {"name": "H", "species": [{"element": "H", "occu": 1}], "xyz": [3.038662, 2.501618, -3.723993], "properties": {}}, {"name": "H", "species": [{"element": "H", "occu": 1}], "xyz": [3.394261, 3.579731, -2.330822], "properties": {}}]}, "smiles": "FCCOCC(C)(C)C", "inchi": "InChI=1S/C7H15FO/c1-7(2,3)6-9-5-4-8/h4-6H2,1-3H3", "formula_alphabetical": "C7 F1 H15 O1", "chemsys": "C-F-H-O", "energy": -450.853526646, "esp": {"1": ["F", -0.308863], "2": ["O", -0.344883], "3": ["C", 0.558879], "4": ["C", 0.017963], "5": ["C", -0.320704], "6": ["C", -0.539909], "7": ["C", -0.324178], "8": ["C", -0.024042], "9": ["C", 0.26111], "10": ["H", 0.033031], "11": ["H", 0.062552], "12": ["H", 0.062612], "13": ["H", 0.063535], "14": ["H", 0.0624], "15": ["H", 0.104364], "16": ["H", 0.130504], "17": ["H", 0.107462], "18": ["H", 0.067949], "19": ["H", 0.055889], "20": ["H", 0.065968], "21": ["H", 0.067737], "22": ["H", 0.081548], "23": ["H", 0.040809], "24": ["H", 0.018267]}, "dipole_moment": {"X": 1.0696, "Y": 0.0588, "Z": 0.589, "Tot": 1.2224}, "functional": "B3LYP", "basis": "6-31+G*", "phase": "gas", "tag": "lis", "state": "successful", "wall_time (s)": 9.089941986952908, "version": "0.0.1", "gauss_version": "ES64L-G16RevC.01", "last_updated": "2021-09-14 22:09:28.019000", "polarizability": 89.51, "fluorinated-solvent": "151642679", "run_ids": ["61411d7c5c60308a4701711a", "61411d92cefa049bb3d91e01"]}