{"_id": "61411c16c6ea939d1e664172", "molecule": {"@module": "pymatgen.core.structure", "@class": "Molecule", "charge": 0, "spin_multiplicity": 1, "sites": [{"name": "F", "species": [{"element": "F", "occu": 1}], "xyz": [5.300933, 1.202856, 3.908344], "properties": {}}, {"name": "O", "species": [{"element": "O", "occu": 1}], "xyz": [2.248907, 0.526329, 2.154874], "properties": {}}, {"name": "C", "species": [{"element": "C", "occu": 1}], "xyz": [0.826989, 0.64631, 2.319643], "properties": {}}, {"name": "C", "species": [{"element": "C", "occu": 1}], "xyz": [0.35222, 2.082709, 2.0514], "properties": {}}, {"name": "C", "species": [{"element": "C", "occu": 1}], "xyz": [0.214979, -0.381427, 1.374284], "properties": {}}, {"name": "C", "species": [{"element": "C", "occu": 1}], "xyz": [-1.150366, 2.291019, 2.283318], "properties": {}}, {"name": "C", "species": [{"element": "C", "occu": 1}], "xyz": [3.045525, 1.134274, 3.155534], "properties": {}}, {"name": "C", "species": [{"element": "C", "occu": 1}], "xyz": [4.452273, 0.585132, 2.972664], "properties": {}}, {"name": "H", "species": [{"element": "H", "occu": 1}], "xyz": [0.576063, 0.376777, 3.361583], "properties": {}}, {"name": "H", "species": [{"element": "H", "occu": 1}], "xyz": [0.906927, 2.767836, 2.70488], "properties": {}}, {"name": "H", "species": [{"element": "H", "occu": 1}], "xyz": [0.620788, 2.345075, 1.018983], "properties": {}}, {"name": "H", "species": [{"element": "H", "occu": 1}], "xyz": [0.633456, -1.372538, 1.57677], "properties": {}}, {"name": "H", "species": [{"element": "H", "occu": 1}], "xyz": [-0.871702, -0.432744, 1.496211], "properties": {}}, {"name": "H", "species": [{"element": "H", "occu": 1}], "xyz": [0.438501, -0.119093, 0.333326], "properties": {}}, {"name": "H", "species": [{"element": "H", "occu": 1}], "xyz": [-1.443139, 1.974258, 3.293092], "properties": {}}, {"name": "H", "species": [{"element": "H", "occu": 1}], "xyz": [-1.415806, 3.349133, 2.178407], "properties": {}}, {"name": "H", "species": [{"element": "H", "occu": 1}], "xyz": [-1.757126, 1.726652, 1.56662], "properties": {}}, {"name": "H", "species": [{"element": "H", "occu": 1}], "xyz": [2.675525, 0.885777, 4.163423], "properties": {}}, {"name": "H", "species": [{"element": "H", "occu": 1}], "xyz": [3.068567, 2.229651, 3.060182], "properties": {}}, {"name": "H", "species": [{"element": "H", "occu": 1}], "xyz": [4.833785, 0.808223, 1.971217], "properties": {}}, {"name": "H", "species": [{"element": "H", "occu": 1}], "xyz": [4.484549, -0.4946, 3.148945], "properties": {}}]}, "smiles": "FCCO[C@@H](CC)C", "inchi": "InChI=1S/C6H13FO/c1-3-6(2)8-5-4-7/h6H,3-5H2,1-2H3/t6-/m1/s1", "formula_alphabetical": "C6 F1 H13 O1", "chemsys": "C-F-H-O", "energy": -411.540315503, "esp": {"1": ["F", -0.337626], "2": ["O", -0.620851], "3": ["C", 0.571846], "4": ["C", -0.063006], "5": ["C", -0.460969], "6": ["C", -0.321145], "7": ["C", 0.2664], "8": ["C", 0.286562], "9": ["H", -0.032738], "10": ["H", 0.033268], "11": ["H", 0.049384], "12": ["H", 0.119591], "13": ["H", 0.101046], "14": ["H", 0.123806], "15": ["H", 0.063654], "16": ["H", 0.098706], "17": ["H", 0.086768], "18": ["H", -0.012259], "19": ["H", -0.008351], "20": ["H", 0.029712], "21": ["H", 0.026202]}, "dipole_moment": {"X": -2.234, "Y": -0.0961, "Z": -0.434, "Tot": 2.2778}, "functional": "B3LYP", "basis": "6-31+G*", "phase": "gas", "tag": "lis", "state": "successful", "wall_time (s)": 7.2026221349369735, "version": "0.0.1", "gauss_version": "ES64L-G16RevC.01", "last_updated": "2021-09-14 22:03:01.857000", "polarizability": 77.26, "fluorinated-solvent": "90696578", "run_ids": ["61411bff761fc3ed7510d17a", "61411c0dc633ca3021d20c71"]}