{"_id": "613a4f04b934393b4e6d6624", "molecule": {"@module": "pymatgen.core.structure", "@class": "Molecule", "charge": 0, "spin_multiplicity": 1, "sites": [{"name": "F", "species": [{"element": "F", "occu": 1}], "xyz": [1.348053, -3.479004, 2.616233], "properties": {}}, {"name": "O", "species": [{"element": "O", "occu": 1}], "xyz": [2.215842, -0.553419, 2.40775], "properties": {}}, {"name": "C", "species": [{"element": "C", "occu": 1}], "xyz": [0.366958, 0.926659, 2.7751], "properties": {}}, {"name": "C", "species": [{"element": "C", "occu": 1}], "xyz": [0.956927, 2.071691, 1.93548], "properties": {}}, {"name": "C", "species": [{"element": "C", "occu": 1}], "xyz": [0.787979, -0.470283, 2.332642], "properties": {}}, {"name": "C", "species": [{"element": "C", "occu": 1}], "xyz": [0.533506, 2.049795, 0.461028], "properties": {}}, {"name": "C", "species": [{"element": "C", "occu": 1}], "xyz": [2.790047, -1.709833, 1.832724], "properties": {}}, {"name": "C", "species": [{"element": "C", "occu": 1}], "xyz": [2.659783, -2.963767, 2.679589], "properties": {}}, {"name": "H", "species": [{"element": "H", "occu": 1}], "xyz": [-0.731953, 0.968263, 2.743505], "properties": {}}, {"name": "H", "species": [{"element": "H", "occu": 1}], "xyz": [0.658982, 1.057667, 3.825667], "properties": {}}, {"name": "H", "species": [{"element": "H", "occu": 1}], "xyz": [0.646401, 3.02459, 2.385619], "properties": {}}, {"name": "H", "species": [{"element": "H", "occu": 1}], "xyz": [2.050774, 2.033421, 2.004416], "properties": {}}, {"name": "H", "species": [{"element": "H", "occu": 1}], "xyz": [0.465852, -0.675096, 1.299049], "properties": {}}, {"name": "H", "species": [{"element": "H", "occu": 1}], "xyz": [0.327034, -1.231299, 2.975964], "properties": {}}, {"name": "H", "species": [{"element": "H", "occu": 1}], "xyz": [-0.560372, 2.049293, 0.36099], "properties": {}}, {"name": "H", "species": [{"element": "H", "occu": 1}], "xyz": [0.916736, 2.928903, -0.070932], "properties": {}}, {"name": "H", "species": [{"element": "H", "occu": 1}], "xyz": [0.91607, 1.162537, -0.057491], "properties": {}}, {"name": "H", "species": [{"element": "H", "occu": 1}], "xyz": [3.859305, -1.4898, 1.719298], "properties": {}}, {"name": "H", "species": [{"element": "H", "occu": 1}], "xyz": [2.37074, -1.903897, 0.831225], "properties": {}}, {"name": "H", "species": [{"element": "H", "occu": 1}], "xyz": [2.873555, -2.74834, 3.731992], "properties": {}}, {"name": "H", "species": [{"element": "H", "occu": 1}], "xyz": [3.33043, -3.749902, 2.311602], "properties": {}}]}, "smiles": "FCCOCCCC", "inchi": "InChI=1S/C6H13FO/c1-2-3-5-8-6-4-7/h2-6H2,1H3", "formula_alphabetical": "C6 F1 H13 O1", "chemsys": "C-F-H-O", "energy": -411.536748184, "esp": {"1": ["F", -0.309165], "2": ["O", -0.34611], "3": ["C", -0.324338], "4": ["C", 0.354565], "5": ["C", 0.18722], "6": ["C", -0.289186], "7": ["C", -0.025339], "8": ["C", 0.244804], "9": ["H", 0.075966], "10": ["H", 0.075735], "11": ["H", -0.053612], "12": ["H", -0.069154], "13": ["H", 0.010134], "14": ["H", 0.060432], "15": ["H", 0.055609], "16": ["H", 0.04956], "17": ["H", 0.081438], "18": ["H", 0.071494], "19": ["H", 0.082943], "20": ["H", 0.045588], "21": ["H", 0.021415]}, "dipole_moment": {"X": 1.048, "Y": 0.0109, "Z": -0.43, "Tot": 1.1329}, "functional": "B3LYP", "basis": "6-31+G*", "phase": "gas", "tag": "lis", "state": "successful", "wall_time (s)": 7.431170512922108, "version": "0.0.1", "gauss_version": "ES64L-G16RevC.01", "last_updated": "2021-09-09 18:14:28.658000", "polarizability": 77.07, "fluorinated-solvent": "14625835", "run_ids": ["613a4a59875f4062d52bd326", "613a4efd96e552c08ccab6a7"]}