{"_id": "61412085a97404c2f644d3ad", "molecule": {"@module": "pymatgen.core.structure", "@class": "Molecule", "charge": 0, "spin_multiplicity": 1, "sites": [{"name": "F", "species": [{"element": "F", "occu": 1}], "xyz": [4.805496, -0.553606, -0.633546], "properties": {}}, {"name": "O", "species": [{"element": "O", "occu": 1}], "xyz": [2.222709, 1.902532, -0.979644], "properties": {}}, {"name": "C", "species": [{"element": "C", "occu": 1}], "xyz": [0.79721, 2.056597, -1.109624], "properties": {}}, {"name": "C", "species": [{"element": "C", "occu": 1}], "xyz": [0.26336, 1.438712, -2.405396], "properties": {}}, {"name": "C", "species": [{"element": "C", "occu": 1}], "xyz": [0.044634, 1.562713, 0.129458], "properties": {}}, {"name": "C", "species": [{"element": "C", "occu": 1}], "xyz": [2.729141, 0.583459, -0.861656], "properties": {}}, {"name": "C", "species": [{"element": "C", "occu": 1}], "xyz": [4.239593, 0.728049, -0.756503], "properties": {}}, {"name": "H", "species": [{"element": "H", "occu": 1}], "xyz": [0.687123, 3.145283, -1.172468], "properties": {}}, {"name": "H", "species": [{"element": "H", "occu": 1}], "xyz": [0.277308, 0.342848, -2.372912], "properties": {}}, {"name": "H", "species": [{"element": "H", "occu": 1}], "xyz": [-0.775674, 1.749695, -2.565978], "properties": {}}, {"name": "H", "species": [{"element": "H", "occu": 1}], "xyz": [0.859826, 1.770605, -3.262223], "properties": {}}, {"name": "H", "species": [{"element": "H", "occu": 1}], "xyz": [0.489547, 1.979415, 1.039706], "properties": {}}, {"name": "H", "species": [{"element": "H", "occu": 1}], "xyz": [-1.003441, 1.880722, 0.079969], "properties": {}}, {"name": "H", "species": [{"element": "H", "occu": 1}], "xyz": [0.053235, 0.468902, 0.204931], "properties": {}}, {"name": "H", "species": [{"element": "H", "occu": 1}], "xyz": [2.483629, -0.033499, -1.738003], "properties": {}}, {"name": "H", "species": [{"element": "H", "occu": 1}], "xyz": [2.349685, 0.074407, 0.03602], "properties": {}}, {"name": "H", "species": [{"element": "H", "occu": 1}], "xyz": [4.521154, 1.307759, 0.128186], "properties": {}}, {"name": "H", "species": [{"element": "H", "occu": 1}], "xyz": [4.656035, 1.196307, -1.653899], "properties": {}}]}, "smiles": "FCCOC(C)C", "inchi": "InChI=1S/C5H11FO/c1-5(2)7-4-3-6/h5H,3-4H2,1-2H3", "formula_alphabetical": "C5 F1 H11 O1", "chemsys": "C-F-H-O", "energy": -372.224048511, "esp": {"1": ["F", -0.333065], "2": ["O", -0.647113], "3": ["C", 0.64343], "4": ["C", -0.459713], "5": ["C", -0.426854], "6": ["C", 0.300658], "7": ["C", 0.235173], "8": ["H", -0.024333], "9": ["H", 0.109955], "10": ["H", 0.097294], "11": ["H", 0.12455], "12": ["H", 0.115646], "13": ["H", 0.088408], "14": ["H", 0.099763], "15": ["H", -0.00677], "16": ["H", -0.000276], "17": ["H", 0.040054], "18": ["H", 0.043193]}, "dipole_moment": {"X": -2.2104, "Y": 0.8924, "Z": -0.2388, "Tot": 2.3957}, "functional": "B3LYP", "basis": "6-31+G*", "phase": "gas", "tag": "lis", "state": "successful", "wall_time (s)": 7.05876879603602, "version": "0.0.1", "gauss_version": "ES64L-G16RevC.01", "last_updated": "2021-09-14 22:21:57.130000", "polarizability": 65.05, "fluorinated-solvent": "57832472", "run_ids": ["6141206d65cf1cda903cfc8d", "6141207cec1cb5062a707453"]}