{"_id": "613a4bf53d7c1e1ae8c1ffc0", "molecule": {"@module": "pymatgen.core.structure", "@class": "Molecule", "charge": 0, "spin_multiplicity": 1, "sites": [{"name": "F", "species": [{"element": "F", "occu": 1}], "xyz": [2.547155, -0.872431, -3.412579], "properties": {}}, {"name": "O", "species": [{"element": "O", "occu": 1}], "xyz": [2.883082, -0.987178, -1.14217], "properties": {}}, {"name": "C", "species": [{"element": "C", "occu": 1}], "xyz": [2.768899, -2.828535, 0.396338], "properties": {}}, {"name": "C", "species": [{"element": "C", "occu": 1}], "xyz": [2.179453, -2.212388, -0.864354], "properties": {}}, {"name": "C", "species": [{"element": "C", "occu": 1}], "xyz": [2.581115, -1.956272, 1.642474], "properties": {}}, {"name": "C", "species": [{"element": "C", "occu": 1}], "xyz": [2.363518, -0.237492, -2.164932], "properties": {}}, {"name": "H", "species": [{"element": "H", "occu": 1}], "xyz": [2.292083, -3.807553, 0.54242], "properties": {}}, {"name": "H", "species": [{"element": "H", "occu": 1}], "xyz": [3.836251, -3.018112, 0.223823], "properties": {}}, {"name": "H", "species": [{"element": "H", "occu": 1}], "xyz": [1.109059, -1.986041, -0.726056], "properties": {}}, {"name": "H", "species": [{"element": "H", "occu": 1}], "xyz": [2.283024, -2.888541, -1.72157], "properties": {}}, {"name": "H", "species": [{"element": "H", "occu": 1}], "xyz": [1.515866, -1.779828, 1.842306], "properties": {}}, {"name": "H", "species": [{"element": "H", "occu": 1}], "xyz": [3.013115, -2.436846, 2.52786], "properties": {}}, {"name": "H", "species": [{"element": "H", "occu": 1}], "xyz": [3.065385, -0.98294, 1.512257], "properties": {}}, {"name": "H", "species": [{"element": "H", "occu": 1}], "xyz": [2.912649, 0.705827, -2.199548], "properties": {}}, {"name": "H", "species": [{"element": "H", "occu": 1}], "xyz": [1.278105, -0.086402, -2.069896], "properties": {}}]}, "smiles": "FCOCCC", "inchi": "InChI=1S/C4H9FO/c1-2-3-6-4-5/h2-4H2,1H3", "formula_alphabetical": "C4 F1 H9 O1", "chemsys": "C-F-H-O", "energy": -332.919715713, "esp": {"1": ["F", -0.289333], "2": ["O", -0.350666], "3": ["C", 0.017325], "4": ["C", 0.076755], "5": ["C", -0.118412], "6": ["C", 0.295664], "7": ["H", 0.00536], "8": ["H", 0.041017], "9": ["H", 0.052853], "10": ["H", 0.059814], "11": ["H", 0.034402], "12": ["H", 0.037847], "13": ["H", 0.025356], "14": ["H", 0.075499], "15": ["H", 0.036519]}, "dipole_moment": {"X": -1.2221, "Y": -0.0674, "Z": 1.5623, "Tot": 1.9847}, "functional": "B3LYP", "basis": "6-31+G*", "phase": "gas", "tag": "lis", "state": "successful", "wall_time (s)": 5.328031256096438, "version": "0.0.1", "gauss_version": "ES64L-G16RevC.01", "last_updated": "2021-09-09 18:01:24.943000", "polarizability": 53.96, "fluorinated-solvent": "22178544", "run_ids": ["613a494604437992b0be4c3d", "613a4b3d4d9f8fbe89c15608"]}