{"_id": "6260de7aae24742db575ba79", "molecule": {"@module": "pymatgen.core.structure", "@class": "Molecule", "charge": 0, "spin_multiplicity": 1, "sites": [{"name": "O", "species": [{"element": "O", "occu": 1}], "xyz": [1.189573, 0.448537, -0.038391], "properties": {}}, {"name": "N", "species": [{"element": "N", "occu": 1}], "xyz": [-2.404124, -0.334122, -0.049398], "properties": {}}, {"name": "C", "species": [{"element": "C", "occu": 1}], "xyz": [0.040538, -0.381863, -0.003449], "properties": {}}, {"name": "C", "species": [{"element": "C", "occu": 1}], "xyz": [-1.199392, 0.505471, -0.036239], "properties": {}}, {"name": "C", "species": [{"element": "C", "occu": 1}], "xyz": [2.401392, -0.27844, 0.01222], "properties": {}}, {"name": "H", "species": [{"element": "H", "occu": 1}], "xyz": [0.042949, -1.06667, -0.87104], "properties": {}}, {"name": "H", "species": [{"element": "H", "occu": 1}], "xyz": [0.032384, -1.000344, 0.907899], "properties": {}}, {"name": "H", "species": [{"element": "H", "occu": 1}], "xyz": [-1.217956, 1.116802, 0.872725], "properties": {}}, {"name": "H", "species": [{"element": "H", "occu": 1}], "xyz": [-1.118977, 1.195626, -0.891933], "properties": {}}, {"name": "H", "species": [{"element": "H", "occu": 1}], "xyz": [-2.540162, -0.76356, -0.962853], "properties": {}}, {"name": "H", "species": [{"element": "H", "occu": 1}], "xyz": [-3.23462, 0.219681, 0.144879], "properties": {}}, {"name": "H", "species": [{"element": "H", "occu": 1}], "xyz": [3.215298, 0.450614, -0.018734], "properties": {}}, {"name": "H", "species": [{"element": "H", "occu": 1}], "xyz": [2.496017, -0.961692, -0.847392], "properties": {}}, {"name": "H", "species": [{"element": "H", "occu": 1}], "xyz": [2.478569, -0.86724, 0.940307], "properties": {}}]}, "smiles": "O(CCN)C", "inchi": "InChI=1S/C3H9NO/c1-5-3-2-4/h2-4H2,1H3", "formula_alphabetical": "C3 H9 N1 O1", "chemsys": "C-H-N-O", "energy": -249.698181709, "esp": {"1": ["O", -0.50829], "2": ["N", -1.132186], "3": ["C", 0.271994], "4": ["C", 0.37308], "5": ["C", 0.084316], "6": ["H", 0.022291], "7": ["H", 0.004827], "8": ["H", 0.023448], "9": ["H", -0.063548], "10": ["H", 0.386183], "11": ["H", 0.418279], "12": ["H", 0.075242], "13": ["H", 0.017615], "14": ["H", 0.026749]}, "dipole_moment": {"X": -0.2503, "Y": -0.3039, "Z": -0.8947, "Tot": 0.9775}, "functional": "B3LYP", "basis": "6-31+G*", "phase": "gas", "tag": "mg_pnnl", "state": "successful", "wall_time (s)": 63.265195357002085, "version": "0.0.1", "gauss_version": "ES64L-G16RevC.01", "last_updated": "2022-04-21 04:32:58.349000", "polarizability": 50.42, "solvent": "mea", "run_ids": ["6260de093bb705adc8312e27", "6260de356e629728acbb0906", "6260de6e4300e8bc6d880003"]}