{"_id": "6185820ae1b6a64b5f50d35a", "molecule": {"@module": "pymatgen.core.structure", "@class": "Molecule", "charge": 0, "spin_multiplicity": 1, "sites": [{"name": "O", "species": [{"element": "O", "occu": 1}], "xyz": [1e-06, 0.197797, 1e-05], "properties": {}}, {"name": "O", "species": [{"element": "O", "occu": 1}], "xyz": [-3.54252, -0.401443, -0.000271], "properties": {}}, {"name": "O", "species": [{"element": "O", "occu": 1}], "xyz": [3.542524, -0.401445, 0.000263], "properties": {}}, {"name": "C", "species": [{"element": "C", "occu": 1}], "xyz": [-1.180861, -0.580832, -0.000239], "properties": {}}, {"name": "C", "species": [{"element": "C", "occu": 1}], "xyz": [1.180861, -0.58084, 0.000243], "properties": {}}, {"name": "C", "species": [{"element": "C", "occu": 1}], "xyz": [-2.363239, 0.376975, 0.000232], "properties": {}}, {"name": "C", "species": [{"element": "C", "occu": 1}], "xyz": [2.363239, 0.376968, -0.000225], "properties": {}}, {"name": "C", "species": [{"element": "C", "occu": 1}], "xyz": [-4.714978, 0.383456, 7.5e-05], "properties": {}}, {"name": "C", "species": [{"element": "C", "occu": 1}], "xyz": [4.714977, 0.383462, -8.6e-05], "properties": {}}, {"name": "H", "species": [{"element": "H", "occu": 1}], "xyz": [-1.228168, -1.229622, -0.889523], "properties": {}}, {"name": "H", "species": [{"element": "H", "occu": 1}], "xyz": [-1.228065, -1.230357, 0.888514], "properties": {}}, {"name": "H", "species": [{"element": "H", "occu": 1}], "xyz": [1.22817, -1.229638, 0.88952], "properties": {}}, {"name": "H", "species": [{"element": "H", "occu": 1}], "xyz": [1.228055, -1.230354, -0.888517], "properties": {}}, {"name": "H", "species": [{"element": "H", "occu": 1}], "xyz": [-2.314833, 1.027709, -0.888513], "properties": {}}, {"name": "H", "species": [{"element": "H", "occu": 1}], "xyz": [-2.314946, 1.02671, 0.889712], "properties": {}}, {"name": "H", "species": [{"element": "H", "occu": 1}], "xyz": [2.314836, 1.027692, 0.888526], "properties": {}}, {"name": "H", "species": [{"element": "H", "occu": 1}], "xyz": [2.314937, 1.026711, -0.889698], "properties": {}}, {"name": "H", "species": [{"element": "H", "occu": 1}], "xyz": [-5.564395, -0.304765, -0.000251], "properties": {}}, {"name": "H", "species": [{"element": "H", "occu": 1}], "xyz": [-4.775542, 1.026972, -0.892621], "properties": {}}, {"name": "H", "species": [{"element": "H", "occu": 1}], "xyz": [-4.775567, 1.02615, 0.893361], "properties": {}}, {"name": "H", "species": [{"element": "H", "occu": 1}], "xyz": [4.775553, 1.026164, -0.893367], "properties": {}}, {"name": "H", "species": [{"element": "H", "occu": 1}], "xyz": [5.564398, -0.304753, 0.000226], "properties": {}}, {"name": "H", "species": [{"element": "H", "occu": 1}], "xyz": [4.775543, 1.026971, 0.892615], "properties": {}}]}, "smiles": "O(CCOC)CCOC", "inchi": "InChI=1S/C6H14O3/c1-7-3-5-9-6-4-8-2/h3-6H2,1-2H3", "formula_alphabetical": "C6 H14 O3", "chemsys": "C-H-O", "energy": -462.686705041, "esp": {"1": ["O", -0.503496], "2": ["O", -0.38928], "3": ["O", -0.398571], "4": ["C", 0.266561], "5": ["C", 0.219939], "6": ["C", 0.176349], "7": ["C", 0.234759], "8": ["C", -0.004099], "9": ["C", -0.022809], "10": ["H", -0.00372], "11": ["H", -0.00379], "12": ["H", 0.003824], "13": ["H", 0.003753], "14": ["H", 0.022214], "15": ["H", 0.022254], "16": ["H", 0.010226], "17": ["H", 0.010263], "18": ["H", 0.085789], "19": ["H", 0.042403], "20": ["H", 0.042389], "21": ["H", 0.046371], "22": ["H", 0.092283], "23": ["H", 0.046386]}, "dipole_moment": {"X": -0.0, "Y": 1.2614, "Z": -0.0, "Tot": 1.2614}, "functional": "B3LYP", "basis": "6-31G(d)", "phase": "gas", "tag": "purdue_{name}", "state": "successful", "wall_time (s)": 85.21999610192142, "version": "0.0.1", "gauss_version": "ES64L-G16RevC.01", "last_updated": "2021-11-05 19:12:10.039000", "polarizability": 77.95, "run_ids": ["6185812ea218a1fdf37c0820", "618581800a9e1bc06b900e55", "618581cf9304ac3c56957ecf"]}