{"_id": "618581bd261ab40389a5451d", "molecule": {"@module": "pymatgen.core.structure", "@class": "Molecule", "charge": 0, "spin_multiplicity": 1, "sites": [{"name": "O", "species": [{"element": "O", "occu": 1}], "xyz": [0.0, 0.25719, -3e-06], "properties": {}}, {"name": "C", "species": [{"element": "C", "occu": 1}], "xyz": [1.182915, -0.52199, -6e-06], "properties": {}}, {"name": "C", "species": [{"element": "C", "occu": 1}], "xyz": [-1.182949, -0.522023, -7e-06], "properties": {}}, {"name": "C", "species": [{"element": "C", "occu": 1}], "xyz": [2.378907, 0.416502, 9e-06], "properties": {}}, {"name": "C", "species": [{"element": "C", "occu": 1}], "xyz": [-2.378897, 0.416506, 5e-06], "properties": {}}, {"name": "H", "species": [{"element": "H", "occu": 1}], "xyz": [1.206071, -1.179206, 0.887027], "properties": {}}, {"name": "H", "species": [{"element": "H", "occu": 1}], "xyz": [1.20608, -1.179191, -0.887053], "properties": {}}, {"name": "H", "species": [{"element": "H", "occu": 1}], "xyz": [-1.206023, -1.179193, -0.887058], "properties": {}}, {"name": "H", "species": [{"element": "H", "occu": 1}], "xyz": [-1.206019, -1.179209, 0.887033], "properties": {}}, {"name": "H", "species": [{"element": "H", "occu": 1}], "xyz": [3.314669, -0.153501, 8e-06], "properties": {}}, {"name": "H", "species": [{"element": "H", "occu": 1}], "xyz": [2.362265, 1.058065, -0.886941], "properties": {}}, {"name": "H", "species": [{"element": "H", "occu": 1}], "xyz": [2.362256, 1.058048, 0.886972], "properties": {}}, {"name": "H", "species": [{"element": "H", "occu": 1}], "xyz": [-3.3147, -0.153431, -1e-06], "properties": {}}, {"name": "H", "species": [{"element": "H", "occu": 1}], "xyz": [-2.36223, 1.058051, 0.886969], "properties": {}}, {"name": "H", "species": [{"element": "H", "occu": 1}], "xyz": [-2.362228, 1.058073, -0.886942], "properties": {}}]}, "smiles": "O(CC)CC", "inchi": "InChI=1S/C4H10O/c1-3-5-4-2/h3-4H2,1-2H3", "formula_alphabetical": "C4 H10 O1", "chemsys": "C-H-O", "energy": -233.6634487, "esp": {"1": ["O", -0.420468], "2": ["C", 0.309175], "3": ["C", 0.315699], "4": ["C", -0.270068], "5": ["C", -0.278968], "6": ["H", -0.02649], "7": ["H", -0.02649], "8": ["H", -0.027104], "9": ["H", -0.027104], "10": ["H", 0.062158], "11": ["H", 0.080457], "12": ["H", 0.080457], "13": ["H", 0.064026], "14": ["H", 0.082361], "15": ["H", 0.082361]}, "dipole_moment": {"X": -0.0002, "Y": -1.0258, "Z": -0.0, "Tot": 1.0258}, "functional": "B3LYP", "basis": "6-31G(d)", "phase": "gas", "tag": "purdue_{name}", "state": "successful", "wall_time (s)": 37.01960748422425, "version": "0.0.1", "gauss_version": "ES64L-G16RevC.01", "last_updated": "2021-11-05 19:10:53.443000", "polarizability": 48.5, "run_ids": ["6185811426139cb2a505b69b", "618581600acb9c79643e5f96", "618581b2908f4af3a7b9b16a"]}