{"_id": "618581b3c9b00e35db09fe95", "molecule": {"@module": "pymatgen.core.structure", "@class": "Molecule", "charge": 0, "spin_multiplicity": 1, "sites": [{"name": "O", "species": [{"element": "O", "occu": 1}], "xyz": [0.0, 0.375473, -7e-06], "properties": {}}, {"name": "C", "species": [{"element": "C", "occu": 1}], "xyz": [1.183097, -0.401721, -0.000117], "properties": {}}, {"name": "C", "species": [{"element": "C", "occu": 1}], "xyz": [-1.183097, -0.401724, 0.000114], "properties": {}}, {"name": "C", "species": [{"element": "C", "occu": 1}], "xyz": [2.385054, 0.534847, 0.000633], "properties": {}}, {"name": "C", "species": [{"element": "C", "occu": 1}], "xyz": [-2.385053, 0.534845, -0.00063], "properties": {}}, {"name": "C", "species": [{"element": "C", "occu": 1}], "xyz": [3.71832, -0.218988, -0.000312], "properties": {}}, {"name": "C", "species": [{"element": "C", "occu": 1}], "xyz": [-3.718322, -0.218987, 0.000318], "properties": {}}, {"name": "H", "species": [{"element": "H", "occu": 1}], "xyz": [1.209643, -1.059266, -0.887835], "properties": {}}, {"name": "H", "species": [{"element": "H", "occu": 1}], "xyz": [1.209216, -1.060161, 0.886943], "properties": {}}, {"name": "H", "species": [{"element": "H", "occu": 1}], "xyz": [-1.209634, -1.059266, 0.887833], "properties": {}}, {"name": "H", "species": [{"element": "H", "occu": 1}], "xyz": [-1.209218, -1.060165, -0.886945], "properties": {}}, {"name": "H", "species": [{"element": "H", "occu": 1}], "xyz": [2.31673, 1.187883, -0.878271], "properties": {}}, {"name": "H", "species": [{"element": "H", "occu": 1}], "xyz": [2.317064, 1.186224, 0.880791], "properties": {}}, {"name": "H", "species": [{"element": "H", "occu": 1}], "xyz": [-2.316726, 1.187878, 0.878276], "properties": {}}, {"name": "H", "species": [{"element": "H", "occu": 1}], "xyz": [-2.317066, 1.186225, -0.880786], "properties": {}}, {"name": "H", "species": [{"element": "H", "occu": 1}], "xyz": [3.816523, -0.858225, -0.886362], "properties": {}}, {"name": "H", "species": [{"element": "H", "occu": 1}], "xyz": [4.563559, 0.47748, 0.000714], "properties": {}}, {"name": "H", "species": [{"element": "H", "occu": 1}], "xyz": [3.816407, -0.860648, 0.884006], "properties": {}}, {"name": "H", "species": [{"element": "H", "occu": 1}], "xyz": [-3.816524, -0.858226, 0.886365], "properties": {}}, {"name": "H", "species": [{"element": "H", "occu": 1}], "xyz": [-4.563557, 0.477486, -0.000704], "properties": {}}, {"name": "H", "species": [{"element": "H", "occu": 1}], "xyz": [-3.816415, -0.860643, -0.884002], "properties": {}}]}, "smiles": "O(CCC)CCC", "inchi": "InChI=1S/C6H14O/c1-3-5-7-6-4-2/h3-6H2,1-2H3", "formula_alphabetical": "C6 H14 O1", "chemsys": "C-H-O", "energy": -312.29069747, "esp": {"1": ["O", -0.535191], "2": ["C", 0.293232], "3": ["C", 0.314174], "4": ["C", 0.149481], "5": ["C", 0.125067], "6": ["C", -0.385015], "7": ["C", -0.333319], "8": ["H", -0.031058], "9": ["H", -0.031128], "10": ["H", -0.034369], "11": ["H", -0.034452], "12": ["H", -0.001808], "13": ["H", -0.001771], "14": ["H", -0.000631], "15": ["H", -0.000598], "16": ["H", 0.086499], "17": ["H", 0.100092], "18": ["H", 0.08641], "19": ["H", 0.07322], "20": ["H", 0.087991], "21": ["H", 0.073175]}, "dipole_moment": {"X": -0.0, "Y": -0.8985, "Z": 0.0, "Tot": 0.8985}, "functional": "B3LYP", "basis": "6-31G(d)", "phase": "gas", "tag": "purdue_{name}", "state": "successful", "wall_time (s)": 57.95530877378769, "version": "0.0.1", "gauss_version": "ES64L-G16RevC.01", "last_updated": "2021-11-05 19:10:43.468000", "polarizability": 70.04, "run_ids": ["6185811240ae9024a6d2d43a", "61858167f91bc5a759cd446f", "618581ada625efe39755c570"]}