{"_id": "6260de7e9a232f3e4058fffe", "molecule": {"@module": "pymatgen.core.structure", "@class": "Molecule", "charge": 0, "spin_multiplicity": 1, "sites": [{"name": "O", "species": [{"element": "O", "occu": 1}], "xyz": [-0.010652, 0.940275, 0.140791], "properties": {}}, {"name": "O", "species": [{"element": "O", "occu": 1}], "xyz": [0.80652, -1.12856, -0.073978], "properties": {}}, {"name": "O", "species": [{"element": "O", "occu": 1}], "xyz": [2.224695, 0.643228, -0.127214], "properties": {}}, {"name": "C", "species": [{"element": "C", "occu": 1}], "xyz": [-1.135552, 0.069107, 0.4128], "properties": {}}, {"name": "C", "species": [{"element": "C", "occu": 1}], "xyz": [-0.62211, -1.279766, -0.111407], "properties": {}}, {"name": "C", "species": [{"element": "C", "occu": 1}], "xyz": [-2.388027, 0.601157, -0.255332], "properties": {}}, {"name": "C", "species": [{"element": "C", "occu": 1}], "xyz": [1.117596, 0.198479, -0.029681], "properties": {}}, {"name": "H", "species": [{"element": "H", "occu": 1}], "xyz": [-1.25949, 0.040296, 1.502779], "properties": {}}, {"name": "H", "species": [{"element": "H", "occu": 1}], "xyz": [-0.897257, -2.13008, 0.51543], "properties": {}}, {"name": "H", "species": [{"element": "H", "occu": 1}], "xyz": [-0.928731, -1.466942, -1.14761], "properties": {}}, {"name": "H", "species": [{"element": "H", "occu": 1}], "xyz": [-2.249345, 0.674588, -1.339377], "properties": {}}, {"name": "H", "species": [{"element": "H", "occu": 1}], "xyz": [-3.232749, -0.068802, -0.053637], "properties": {}}, {"name": "H", "species": [{"element": "H", "occu": 1}], "xyz": [-2.639597, 1.593231, 0.131846], "properties": {}}]}, "smiles": "O1[C@H](COC1=O)C", "inchi": "InChI=1S/C4H6O3/c1-3-2-6-4(5)7-3/h3H,2H2,1H3/t3-/m0/s1", "formula_alphabetical": "C4 H6 O3", "chemsys": "C-H-O", "energy": -381.735589094, "esp": {"1": ["O", -0.470425], "2": ["O", -0.451964], "3": ["O", -0.550724], "4": ["C", 0.359551], "5": ["C", 0.165221], "6": ["C", -0.47666], "7": ["C", 0.891078], "8": ["H", 0.028769], "9": ["H", 0.04015], "10": ["H", 0.054804], "11": ["H", 0.144185], "12": ["H", 0.096747], "13": ["H", 0.169267]}, "dipole_moment": {"X": -5.6136, "Y": -1.8974, "Z": 0.4328, "Tot": 5.9413}, "functional": "B3LYP", "basis": "6-31+G*", "phase": "gas", "tag": "mg_pnnl", "state": "successful", "wall_time (s)": 88.74280389770865, "version": "0.0.1", "gauss_version": "ES64L-G16RevC.01", "last_updated": "2022-04-21 04:33:02.390000", "polarizability": 54.69, "solvent": "pc", "run_ids": ["6260de109c8c362551301be3", "6260de35398d7ad3520d59d8", "6260de6b199e3a386ada7187"]}