{"_id": "61bf7cc7b4dab3fede72fae6", "molecule": {"@module": "pymatgen.core.structure", "@class": "Molecule", "charge": 0, "spin_multiplicity": 1, "sites": [{"name": "S", "species": [{"element": "S", "occu": 1}], "xyz": [0.966342, -0.36856, -0.034731], "properties": {}}, {"name": "F", "species": [{"element": "F", "occu": 1}], "xyz": [3.409683, -0.779689, -0.996211], "properties": {}}, {"name": "F", "species": [{"element": "F", "occu": 1}], "xyz": [3.05435, 1.255467, -0.292076], "properties": {}}, {"name": "F", "species": [{"element": "F", "occu": 1}], "xyz": [3.327469, -0.364301, 1.144563], "properties": {}}, {"name": "O", "species": [{"element": "O", "occu": 1}], "xyz": [0.816972, -1.81542, 0.076237], "properties": {}}, {"name": "O", "species": [{"element": "O", "occu": 1}], "xyz": [0.397174, 0.588556, 0.907609], "properties": {}}, {"name": "N", "species": [{"element": "N", "occu": 1}], "xyz": [0.58857, 0.104096, -1.592095], "properties": {}}, {"name": "C", "species": [{"element": "C", "occu": 1}], "xyz": [2.822054, -0.039533, -0.049175], "properties": {}}, {"name": "H", "species": [{"element": "H", "occu": 1}], "xyz": [0.257778, -0.670884, -2.161697], "properties": {}}, {"name": "H", "species": [{"element": "H", "occu": 1}], "xyz": [-0.020274, 0.918579, -1.611863], "properties": {}}]}, "smiles": "S(=O)(=O)(N)C(F)(F)F", "inchi": "InChI=1S/CH2F3NO2S/c2-1(3,4)8(5,6)7/h(H2,5,6,7)", "formula_alphabetical": "C1 F3 H2 N1 O2 S1", "chemsys": "C-F-H-N-O-S", "energy": -942.170117172, "esp": {"1": ["S", 0.885842], "2": ["F", -0.133768], "3": ["F", -0.133901], "4": ["F", -0.140249], "5": ["O", -0.439787], "6": ["O", -0.43972], "7": ["N", -0.925779], "8": ["C", 0.433868], "9": ["H", 0.447334], "10": ["H", 0.44616]}, "dipole_moment": {"X": -1.0424, "Y": 0.9567, "Z": -3.2934, "Tot": 3.5845}, "functional": "B3LYP", "basis": "6-31+G*", "phase": "gas", "tag": "lis", "state": "successful", "wall_time (s)": 6.601354322992847, "version": "0.0.1", "gauss_version": "ES64L-G16RevC.01", "last_updated": "2021-12-19 18:41:11.549000", "polarizability": 50.29, "solvent": "DMT", "run_ids": ["61bf7be458de2403e97a8513", "61bf7c54d6f2e24988cc383a"]}