{"_id": "618581c27354b208651a8ee6", "molecule": {"@module": "pymatgen.core.structure", "@class": "Molecule", "charge": -1, "spin_multiplicity": 1, "sites": [{"name": "S", "species": [{"element": "S", "occu": 1}], "xyz": [-1.394509, -0.143971, 0.093043], "properties": {}}, {"name": "S", "species": [{"element": "S", "occu": 1}], "xyz": [1.394653, 0.143908, 0.093372], "properties": {}}, {"name": "F", "species": [{"element": "F", "occu": 1}], "xyz": [-1.65641, 1.370664, -0.4828], "properties": {}}, {"name": "F", "species": [{"element": "F", "occu": 1}], "xyz": [1.654747, -1.369846, -0.485676], "properties": {}}, {"name": "O", "species": [{"element": "O", "occu": 1}], "xyz": [-1.37351, -0.975248, -1.106754], "properties": {}}, {"name": "O", "species": [{"element": "O", "occu": 1}], "xyz": [-2.451741, -0.331539, 1.077098], "properties": {}}, {"name": "O", "species": [{"element": "O", "occu": 1}], "xyz": [1.374799, 0.97774, -1.104711], "properties": {}}, {"name": "O", "species": [{"element": "O", "occu": 1}], "xyz": [2.452074, 0.328202, 1.077831], "properties": {}}, {"name": "N", "species": [{"element": "N", "occu": 1}], "xyz": [-4.4e-05, 5.8e-05, 0.883702], "properties": {}}]}, "smiles": "S(=O)(=O)(F)[N]S(=O)(=O)F", "inchi": "InChI=1S/F2NO4S2/c1-8(4,5)3-9(2,6)7", "formula_alphabetical": "F2 N1 O4 S2", "chemsys": "F-N-O-S", "energy": -1351.66079052, "esp": {"1": ["S", 0.957011], "2": ["S", 0.960551], "3": ["F", -0.214812], "4": ["F", -0.215346], "5": ["O", -0.47171], "6": ["O", -0.484687], "7": ["O", -0.473648], "8": ["O", -0.485168], "9": ["N", -0.572189]}, "dipole_moment": {"X": -0.0012, "Y": 0.0005, "Z": -0.5326, "Tot": 0.5326}, "functional": "B3LYP", "basis": "6-31G(d)", "phase": "gas", "tag": "purdue_{name}", "state": "successful", "wall_time (s)": 83.22354448854458, "version": "0.0.1", "gauss_version": "ES64L-G16RevC.01", "last_updated": "2021-11-05 19:10:58.680000", "polarizability": 52.05, "run_ids": ["6185817cba48dd5489918e0b", "618581b2acd7a578325e8370", "618581bfd3327f5dc7826371"]}